 Entering Gaussian System, Link 0=/appl/chem/G16RevA.03/g16/g16
 Initial command:
 /appl/chem/G16RevA.03/g16/l1.exe "/wrk/slehtola/18246646.GAUSS_SCRDIR/Gau-11075.inp" -scrdir="/wrk/slehtola/18246646.GAUSS_SCRDIR/"
 Entering Link 1 = /appl/chem/G16RevA.03/g16/l1.exe PID=     11079.
  
 Copyright (c) 1988,1990,1992,1993,1995,1998,2003,2009,2016,
            Gaussian, Inc.  All Rights Reserved.
  
 This is part of the Gaussian(R) 16 program.  It is based on
 the Gaussian(R) 09 system (copyright 2009, Gaussian, Inc.),
 the Gaussian(R) 03 system (copyright 2003, Gaussian, Inc.),
 the Gaussian(R) 98 system (copyright 1998, Gaussian, Inc.),
 the Gaussian(R) 94 system (copyright 1995, Gaussian, Inc.),
 the Gaussian 92(TM) system (copyright 1992, Gaussian, Inc.),
 the Gaussian 90(TM) system (copyright 1990, Gaussian, Inc.),
 the Gaussian 88(TM) system (copyright 1988, Gaussian, Inc.),
 the Gaussian 86(TM) system (copyright 1986, Carnegie Mellon
 University), and the Gaussian 82(TM) system (copyright 1983,
 Carnegie Mellon University). Gaussian is a federally registered
 trademark of Gaussian, Inc.
  
 This software contains proprietary and confidential information,
 including trade secrets, belonging to Gaussian, Inc.
  
 This software is provided under written license and may be
 used, copied, transmitted, or stored only in accord with that
 written license.
  
 The following legend is applicable only to US Government
 contracts under FAR:
  
                    RESTRICTED RIGHTS LEGEND
  
 Use, reproduction and disclosure by the US Government is
 subject to restrictions as set forth in subparagraphs (a)
 and (c) of the Commercial Computer Software - Restricted
 Rights clause in FAR 52.227-19.
  
 Gaussian, Inc.
 340 Quinnipiac St., Bldg. 40, Wallingford CT 06492
  
  
 ---------------------------------------------------------------
 Warning -- This program may not be used in any manner that
 competes with the business of Gaussian, Inc. or will provide
 assistance to any competitor of Gaussian, Inc.  The licensee
 of this program is prohibited from giving any competitor of
 Gaussian, Inc. access to this program.  By using this program,
 the user acknowledges that Gaussian, Inc. is engaged in the
 business of creating and licensing software in the field of
 computational chemistry and represents and warrants to the
 licensee that it is not a competitor of Gaussian, Inc. and that
 it will not use this program in any manner prohibited above.
 ---------------------------------------------------------------
  

 Cite this work as:
 Gaussian 16, Revision A.03,
 M. J. Frisch, G. W. Trucks, H. B. Schlegel, G. E. Scuseria, 
 M. A. Robb, J. R. Cheeseman, G. Scalmani, V. Barone, 
 G. A. Petersson, H. Nakatsuji, X. Li, M. Caricato, A. V. Marenich, 
 J. Bloino, B. G. Janesko, R. Gomperts, B. Mennucci, H. P. Hratchian, 
 J. V. Ortiz, A. F. Izmaylov, J. L. Sonnenberg, D. Williams-Young, 
 F. Ding, F. Lipparini, F. Egidi, J. Goings, B. Peng, A. Petrone, 
 T. Henderson, D. Ranasinghe, V. G. Zakrzewski, J. Gao, N. Rega, 
 G. Zheng, W. Liang, M. Hada, M. Ehara, K. Toyota, R. Fukuda, 
 J. Hasegawa, M. Ishida, T. Nakajima, Y. Honda, O. Kitao, H. Nakai, 
 T. Vreven, K. Throssell, J. A. Montgomery, Jr., J. E. Peralta, 
 F. Ogliaro, M. J. Bearpark, J. J. Heyd, E. N. Brothers, K. N. Kudin, 
 V. N. Staroverov, T. A. Keith, R. Kobayashi, J. Normand, 
 K. Raghavachari, A. P. Rendell, J. C. Burant, S. S. Iyengar, 
 J. Tomasi, M. Cossi, J. M. Millam, M. Klene, C. Adamo, R. Cammi, 
 J. W. Ochterski, R. L. Martin, K. Morokuma, O. Farkas, 
 J. B. Foresman, and D. J. Fox, Gaussian, Inc., Wallingford CT, 2016.
 
 ******************************************
 Gaussian 16:  ES64L-G16RevA.03 25-Dec-2016
                 1-Feb-2018 
 ******************************************
 ----------------------------------------------------------------------
 #P ROHFS/UGBS units=au punch=mo gfinput integral(grid=350590,noxctest)
 ----------------------------------------------------------------------
 1/20=1,38=1,172=1/1;
 2/12=2,17=6,18=5,40=1/2;
 3/5=23,11=2,24=10,25=1,30=1,47=8,74=200,75=350590,116=101/1,2,3;
 4//1;
 5/5=2,38=5/2;
 6/7=2,8=2,9=2,10=2,28=1/1;
 99/5=1,9=1,10=32/99;
 Leave Link    1 at Thu Feb  1 17:44:39 2018, MaxMem=           0 cpu:               0.1 elap:               0.1
 (Enter /appl/chem/G16RevA.03/g16/l101.exe)
 ------------
 Gold-lithium
 ------------
 Symbolic Z-matrix:
 Charge =  0 Multiplicity = 1
 Au
 Li                   1    R
       Variables:
  R                     4.303                    
 
 ITRead=  0  0
 MicOpt= -1 -1
 NAtoms=      2 NQM=        2 NQMF=       0 NMMI=      0 NMMIF=      0
                NMic=       0 NMicF=      0.
                    Isotopes and Nuclear Properties:
 (Nuclear quadrupole moments (NQMom) in fm**2, nuclear magnetic moments (NMagM)
  in nuclear magnetons)

  Atom         1           2
 IAtWgt=         197           7
 AtmWgt= 196.9666000   7.0160045
 NucSpn=           3           3
 AtZEff=  -0.0000000  -0.0000000
 NQMom=   54.7000000  -4.0100000
 NMagM=    0.1481590   3.2564240
 AtZNuc=  79.0000000   3.0000000
 Leave Link  101 at Thu Feb  1 17:44:40 2018, MaxMem=   104857600 cpu:               0.2 elap:               0.7
 (Enter /appl/chem/G16RevA.03/g16/l202.exe)
                          Input orientation:                          
 ---------------------------------------------------------------------
 Center     Atomic      Atomic             Coordinates (Angstroms)
 Number     Number       Type             X           Y           Z
 ---------------------------------------------------------------------
      1         79           0        0.000000    0.000000    0.000000
      2          3           0        0.000000    0.000000    2.277050
 ---------------------------------------------------------------------
 Stoichiometry    AuLi
 Framework group  C*V[C*(LiAu)]
 Deg. of freedom     1
 Full point group                 C*V     NOp   4
 Largest Abelian subgroup         C2V     NOp   4
 Largest concise Abelian subgroup C1      NOp   1
                         Standard orientation:                         
 ---------------------------------------------------------------------
 Center     Atomic      Atomic             Coordinates (Angstroms)
 Number     Number       Type             X           Y           Z
 ---------------------------------------------------------------------
      1         79           0        0.000000    0.000000    0.083307
      2          3           0        0.000000    0.000000   -2.193743
 ---------------------------------------------------------------------
 Rotational constants (GHZ):           0.0000000          14.3874202          14.3874202
 Leave Link  202 at Thu Feb  1 17:44:41 2018, MaxMem=   104857600 cpu:               0.0 elap:               0.1
 (Enter /appl/chem/G16RevA.03/g16/l301.exe)
 Standard basis: UGBS (5D, 7F)
 Ernie: Thresh=  0.10000D-02 Tol=  0.10000D-05 Strict=F.
 AO basis set in the form of general basis input (Overlap normalization):
      1 0
 S   1 1.00       0.000000000000
      0.4366249266D+08  0.1000000000D+01
 S   1 1.00       0.000000000000
      0.2229783173D+08  0.1000000000D+01
 S   1 1.00       0.000000000000
      0.1138719459D+08  0.1000000000D+01
 S   1 1.00       0.000000000000
      0.5815282942D+07  0.1000000000D+01
 S   1 1.00       0.000000000000
      0.2969784651D+07  0.1000000000D+01
 S   1 1.00       0.000000000000
      0.1516627989D+07  0.1000000000D+01
 S   1 1.00       0.000000000000
      0.7745209592D+06  0.1000000000D+01
 S   1 1.00       0.000000000000
      0.3955371526D+06  0.1000000000D+01
 S   1 1.00       0.000000000000
      0.2019953588D+06  0.1000000000D+01
 S   1 1.00       0.000000000000
      0.1031562389D+06  0.1000000000D+01
 S   1 1.00       0.000000000000
      0.5268046591D+05  0.1000000000D+01
 S   1 1.00       0.000000000000
      0.2690318607D+05  0.1000000000D+01
 S   1 1.00       0.000000000000
      0.1373908542D+05  0.1000000000D+01
 S   1 1.00       0.000000000000
      0.7016361094D+04  0.1000000000D+01
 S   1 1.00       0.000000000000
      0.3583158668D+04  0.1000000000D+01
 S   1 1.00       0.000000000000
      0.1829869625D+04  0.1000000000D+01
 S   1 1.00       0.000000000000
      0.9344891347D+03  0.1000000000D+01
 S   1 1.00       0.000000000000
      0.4772306896D+03  0.1000000000D+01
 S   1 1.00       0.000000000000
      0.2437151195D+03  0.1000000000D+01
 S   1 1.00       0.000000000000
      0.1244619442D+03  0.1000000000D+01
 S   1 1.00       0.000000000000
      0.6356099525D+02  0.1000000000D+01
 S   1 1.00       0.000000000000
      0.3245972208D+02  0.1000000000D+01
 S   1 1.00       0.000000000000
      0.1657673158D+02  0.1000000000D+01
 S   1 1.00       0.000000000000
      0.8465507783D+01  0.1000000000D+01
 S   1 1.00       0.000000000000
      0.4323217860D+01  0.1000000000D+01
 S   1 1.00       0.000000000000
      0.2207807629D+01  0.1000000000D+01
 S   1 1.00       0.000000000000
      0.1127496852D+01  0.1000000000D+01
 S   1 1.00       0.000000000000
      0.5757970639D+00  0.1000000000D+01
 S   1 1.00       0.000000000000
      0.2940516050D+00  0.1000000000D+01
 S   1 1.00       0.000000000000
      0.1501680918D+00  0.1000000000D+01
 S   1 1.00       0.000000000000
      0.7668876969D-01  0.1000000000D+01
 S   1 1.00       0.000000000000
      0.3916389510D-01  0.1000000000D+01
 P   1 1.00       0.000000000000
      0.2019953588D+06  0.1000000000D+01
 P   1 1.00       0.000000000000
      0.1031562389D+06  0.1000000000D+01
 P   1 1.00       0.000000000000
      0.5268046591D+05  0.1000000000D+01
 P   1 1.00       0.000000000000
      0.2690318607D+05  0.1000000000D+01
 P   1 1.00       0.000000000000
      0.1373908542D+05  0.1000000000D+01
 P   1 1.00       0.000000000000
      0.7016361094D+04  0.1000000000D+01
 P   1 1.00       0.000000000000
      0.3583158668D+04  0.1000000000D+01
 P   1 1.00       0.000000000000
      0.1829869625D+04  0.1000000000D+01
 P   1 1.00       0.000000000000
      0.9344891347D+03  0.1000000000D+01
 P   1 1.00       0.000000000000
      0.4772306896D+03  0.1000000000D+01
 P   1 1.00       0.000000000000
      0.2437151195D+03  0.1000000000D+01
 P   1 1.00       0.000000000000
      0.1244619442D+03  0.1000000000D+01
 P   1 1.00       0.000000000000
      0.6356099525D+02  0.1000000000D+01
 P   1 1.00       0.000000000000
      0.3245972208D+02  0.1000000000D+01
 P   1 1.00       0.000000000000
      0.1657673158D+02  0.1000000000D+01
 P   1 1.00       0.000000000000
      0.8465507783D+01  0.1000000000D+01
 P   1 1.00       0.000000000000
      0.4323217860D+01  0.1000000000D+01
 P   1 1.00       0.000000000000
      0.2207807629D+01  0.1000000000D+01
 P   1 1.00       0.000000000000
      0.1127496852D+01  0.1000000000D+01
 P   1 1.00       0.000000000000
      0.5757970639D+00  0.1000000000D+01
 P   1 1.00       0.000000000000
      0.2940516050D+00  0.1000000000D+01
 P   1 1.00       0.000000000000
      0.1501680918D+00  0.1000000000D+01
 D   1 1.00       0.000000000000
      0.1373908542D+05  0.1000000000D+01
 D   1 1.00       0.000000000000
      0.7016361094D+04  0.1000000000D+01
 D   1 1.00       0.000000000000
      0.3583158668D+04  0.1000000000D+01
 D   1 1.00       0.000000000000
      0.1829869625D+04  0.1000000000D+01
 D   1 1.00       0.000000000000
      0.9344891347D+03  0.1000000000D+01
 D   1 1.00       0.000000000000
      0.4772306896D+03  0.1000000000D+01
 D   1 1.00       0.000000000000
      0.2437151195D+03  0.1000000000D+01
 D   1 1.00       0.000000000000
      0.1244619442D+03  0.1000000000D+01
 D   1 1.00       0.000000000000
      0.6356099525D+02  0.1000000000D+01
 D   1 1.00       0.000000000000
      0.3245972208D+02  0.1000000000D+01
 D   1 1.00       0.000000000000
      0.1657673158D+02  0.1000000000D+01
 D   1 1.00       0.000000000000
      0.8465507783D+01  0.1000000000D+01
 D   1 1.00       0.000000000000
      0.4323217860D+01  0.1000000000D+01
 D   1 1.00       0.000000000000
      0.2207807629D+01  0.1000000000D+01
 D   1 1.00       0.000000000000
      0.1127496852D+01  0.1000000000D+01
 D   1 1.00       0.000000000000
      0.5757970639D+00  0.1000000000D+01
 D   1 1.00       0.000000000000
      0.2940516050D+00  0.1000000000D+01
 D   1 1.00       0.000000000000
      0.1501680918D+00  0.1000000000D+01
 F   1 1.00       0.000000000000
      0.9344891347D+03  0.1000000000D+01
 F   1 1.00       0.000000000000
      0.4772306896D+03  0.1000000000D+01
 F   1 1.00       0.000000000000
      0.2437151195D+03  0.1000000000D+01
 F   1 1.00       0.000000000000
      0.1244619442D+03  0.1000000000D+01
 F   1 1.00       0.000000000000
      0.6356099525D+02  0.1000000000D+01
 F   1 1.00       0.000000000000
      0.3245972208D+02  0.1000000000D+01
 F   1 1.00       0.000000000000
      0.1657673158D+02  0.1000000000D+01
 F   1 1.00       0.000000000000
      0.8465507783D+01  0.1000000000D+01
 F   1 1.00       0.000000000000
      0.4323217860D+01  0.1000000000D+01
 F   1 1.00       0.000000000000
      0.2207807629D+01  0.1000000000D+01
 F   1 1.00       0.000000000000
      0.1127496852D+01  0.1000000000D+01
 F   1 1.00       0.000000000000
      0.5757970639D+00  0.1000000000D+01
 ****
      2 0
 S   1 1.00       0.000000000000
      0.2019953588D+06  0.1000000000D+01
 S   1 1.00       0.000000000000
      0.1031562389D+06  0.1000000000D+01
 S   1 1.00       0.000000000000
      0.5268046591D+05  0.1000000000D+01
 S   1 1.00       0.000000000000
      0.2690318607D+05  0.1000000000D+01
 S   1 1.00       0.000000000000
      0.1373908542D+05  0.1000000000D+01
 S   1 1.00       0.000000000000
      0.7016361094D+04  0.1000000000D+01
 S   1 1.00       0.000000000000
      0.3583158668D+04  0.1000000000D+01
 S   1 1.00       0.000000000000
      0.1829869625D+04  0.1000000000D+01
 S   1 1.00       0.000000000000
      0.9344891347D+03  0.1000000000D+01
 S   1 1.00       0.000000000000
      0.4772306896D+03  0.1000000000D+01
 S   1 1.00       0.000000000000
      0.2437151195D+03  0.1000000000D+01
 S   1 1.00       0.000000000000
      0.1244619442D+03  0.1000000000D+01
 S   1 1.00       0.000000000000
      0.6356099525D+02  0.1000000000D+01
 S   1 1.00       0.000000000000
      0.3245972208D+02  0.1000000000D+01
 S   1 1.00       0.000000000000
      0.1657673158D+02  0.1000000000D+01
 S   1 1.00       0.000000000000
      0.8465507783D+01  0.1000000000D+01
 S   1 1.00       0.000000000000
      0.4323217860D+01  0.1000000000D+01
 S   1 1.00       0.000000000000
      0.2207807629D+01  0.1000000000D+01
 S   1 1.00       0.000000000000
      0.1127496852D+01  0.1000000000D+01
 S   1 1.00       0.000000000000
      0.5757970639D+00  0.1000000000D+01
 S   1 1.00       0.000000000000
      0.2940516050D+00  0.1000000000D+01
 S   1 1.00       0.000000000000
      0.1501680918D+00  0.1000000000D+01
 S   1 1.00       0.000000000000
      0.7668876969D-01  0.1000000000D+01
 S   1 1.00       0.000000000000
      0.3916389510D-01  0.1000000000D+01
 S   1 1.00       0.000000000000
      0.2000046011D-01  0.1000000000D+01
 P   1 1.00       0.000000000000
      0.2437151195D+03  0.1000000000D+01
 P   1 1.00       0.000000000000
      0.1244619442D+03  0.1000000000D+01
 P   1 1.00       0.000000000000
      0.6356099525D+02  0.1000000000D+01
 P   1 1.00       0.000000000000
      0.3245972208D+02  0.1000000000D+01
 P   1 1.00       0.000000000000
      0.1657673158D+02  0.1000000000D+01
 P   1 1.00       0.000000000000
      0.8465507783D+01  0.1000000000D+01
 P   1 1.00       0.000000000000
      0.4323217860D+01  0.1000000000D+01
 P   1 1.00       0.000000000000
      0.2207807629D+01  0.1000000000D+01
 P   1 1.00       0.000000000000
      0.1127496852D+01  0.1000000000D+01
 P   1 1.00       0.000000000000
      0.5757970639D+00  0.1000000000D+01
 P   1 1.00       0.000000000000
      0.2940516050D+00  0.1000000000D+01
 P   1 1.00       0.000000000000
      0.1501680918D+00  0.1000000000D+01
 P   1 1.00       0.000000000000
      0.7668876969D-01  0.1000000000D+01
 P   1 1.00       0.000000000000
      0.3916389510D-01  0.1000000000D+01
 P   1 1.00       0.000000000000
      0.2000046011D-01  0.1000000000D+01
 ****

 There are   184 symmetry adapted cartesian basis functions of A1  symmetry.
 There are    30 symmetry adapted cartesian basis functions of A2  symmetry.
 There are    91 symmetry adapted cartesian basis functions of B1  symmetry.
 There are    91 symmetry adapted cartesian basis functions of B2  symmetry.
 There are   154 symmetry adapted basis functions of A1  symmetry.
 There are    30 symmetry adapted basis functions of A2  symmetry.
 There are    79 symmetry adapted basis functions of B1  symmetry.
 There are    79 symmetry adapted basis functions of B2  symmetry.
   342 basis functions,   396 primitive gaussians,   396 cartesian basis functions
    41 alpha electrons       41 beta electrons
       nuclear repulsion energy        55.0778526609 Hartrees.
 IExCor=  200 DFT=T Ex=S Corr=None ExCW=0 ScaHFX=  0.000000
 ScaDFX=  1.000000  1.000000  1.000000  1.000000 ScalE2=  1.000000  1.000000
 IRadAn= 350590 IRanWt=     -1 IRanGd=            0 ICorTp=0 IEmpDi=  4
 NAtoms=    2 NActive=    2 NUniq=    2 SFac= 1.00D+00 NAtFMM=   60 NAOKFM=F Big=F
 Integral buffers will be    131072 words long.
 Raffenetti 2 integral format.
 Two-electron integral symmetry is turned on.
 Leave Link  301 at Thu Feb  1 17:44:42 2018, MaxMem=   104857600 cpu:               0.1 elap:               0.8
 (Enter /appl/chem/G16RevA.03/g16/l302.exe)
 NPDir=0 NMtPBC=     1 NCelOv=     1 NCel=       1 NClECP=     1 NCelD=      1
         NCelK=      1 NCelE2=     1 NClLst=     1 CellRange=     0.0.
 One-electron integrals computed using PRISM.
 One-electron integral symmetry used in STVInt
 NBasis=   342 RedAO= T EigKep=  5.99D-05  NBF=   154    30    79    79
 NBsUse=   342 1.00D-06 EigRej= -1.00D+00 NBFU=   154    30    79    79
 Precomputing XC quadrature grid using
 IXCGrd= 4 IRadAn=      350590 IRanWt=          -1 IRanGd=           0 AccXCQ= 0.00D+00.
 Generated NRdTot=       0 NPtTot=           0 NUsed=           0 NTot=          32
 NSgBfM=   358   354   357   358   358 MxSgAt=     2 MxSgA2=     2.
 Leave Link  302 at Thu Feb  1 17:44:42 2018, MaxMem=   104857600 cpu:               0.4 elap:               0.6
 (Enter /appl/chem/G16RevA.03/g16/l303.exe)
 DipDrv:  MaxL=1.
 Leave Link  303 at Thu Feb  1 17:44:43 2018, MaxMem=   104857600 cpu:               0.1 elap:               0.2
 (Enter /appl/chem/G16RevA.03/g16/l401.exe)
 ExpMin= 2.00D-02 ExpMax= 4.37D+07 ExpMxC= 4.37D+07 IAcc=4 IRadAn=    399590 AccDes= 0.00D+00
 Harris functional with IExCor=  200 and IRadAn=  399590 diagonalized for initial guess.
 HarFok:  IExCor=  200 AccDes= 0.00D+00 IRadAn=    399590 IDoV= 1 UseB2=F ITyADJ=14
 ICtDFT=  3500011 ScaDFX=  1.000000  1.000000  1.000000  1.000000
 FoFCou: FMM=F IPFlag=           8 FMFlag=      100000 FMFlg1=           0
         NFxFlg=           0 DoJE=T BraDBF=F KetDBF=T FulRan=T
         wScrn=  0.000000 ICntrl=       500 IOpCl=  0 I1Cent=   200000004 NGrid=           0
         NMat0=    1 NMatS0=      1 NMatT0=    0 NMatD0=    1 NMtDS0=    0 NMtDT0=    0
 Petite list used in FoFCou.
 Harris En= -17871.8909486990    
 JPrj=0 DoOrth=F DoCkMO=F.
 Initial guess orbital symmetries:
       Occupied  (SG) (SG) (SG) (PI) (PI) (SG) (SG) (PI) (PI) (SG)
                 (PI) (PI) (DLTA) (DLTA) (SG) (SG) (PI) (PI) (SG)
                 (PI) (PI) (DLTA) (DLTA) (SG) (SG) (PI) (PI) (DLTA)
                 (DLTA) (PHI) (PHI) (SG) (SG) (PI) (PI) (SG) (PI)
                 (PI) (DLTA) (DLTA) (SG)
       Virtual   (SG) (PI) (PI) (SG) (SG) (SG) (PI) (PI) (PI) (PI)
                 (SG) (SG) (SG) (PI) (PI) (SG) (DLTA) (DLTA) (PI)
                 (PI) (PI) (PI) (SG) (SG) (SG) (SG) (SG) (PI) (PI)
                 (PI) (PI) (SG) (SG) (DLTA) (DLTA) (PI) (PI) (DLTA)
                 (DLTA) (PHI) (PHI) (PI) (PI) (SG) (SG) (SG) (PI)
                 (PI) (SG) (SG) (PI) (PI) (SG) (DLTA) (DLTA) (PI)
                 (PI) (DLTA) (DLTA) (PHI) (PHI) (PI) (PI) (SG)
                 (SG) (SG) (PI) (PI) (SG) (SG) (PI) (PI) (DLTA)
                 (DLTA) (SG) (PI) (PI) (DLTA) (DLTA) (PHI) (PHI)
                 (PI) (PI) (SG) (SG) (PI) (PI) (SG) (SG) (SG) (PI)
                 (PI) (SG) (DLTA) (DLTA) (PHI) (PHI) (PI) (PI)
                 (SG) (DLTA) (DLTA) (PI) (PI) (SG) (PI) (PI) (SG)
                 (SG) (SG) (PI) (PI) (SG) (DLTA) (DLTA) (PHI) (PHI)
                 (PI) (PI) (SG) (DLTA) (DLTA) (PI) (PI) (SG) (SG)
                 (PI) (PI) (SG) (PI) (PI) (SG) (SG) (DLTA) (DLTA)
                 (PHI) (PHI) (PI) (PI) (SG) (SG) (DLTA) (DLTA)
                 (PI) (PI) (SG) (PI) (PI) (SG) (PI) (PI) (SG) (DLTA)
                 (DLTA) (PHI) (PHI) (PI) (PI) (SG) (SG) (SG) (PI)
                 (PI) (SG) (DLTA) (DLTA) (PI) (PI) (SG) (DLTA)
                 (DLTA) (PHI) (PHI) (PI) (PI) (SG) (SG) (PI) (PI)
                 (SG) (PI) (PI) (SG) (SG) (DLTA) (DLTA) (PI) (PI)
                 (SG) (SG) (DLTA) (DLTA) (PHI) (PHI) (PI) (PI)
                 (SG) (PI) (PI) (SG) (PI) (PI) (SG) (DLTA) (DLTA)
                 (PI) (PI) (SG) (SG) (SG) (DLTA) (DLTA) (PHI) (PHI)
                 (PI) (PI) (SG) (PI) (PI) (SG) (SG) (DLTA) (DLTA)
                 (PI) (PI) (SG) (SG) (DLTA) (DLTA) (PHI) (PHI)
                 (PI) (PI) (SG) (PI) (PI) (SG) (SG) (DLTA) (DLTA)
                 (PI) (PI) (SG) (SG) (PI) (PI) (SG) (SG) (DLTA)
                 (DLTA) (PI) (PI) (SG) (SG) (PI) (PI) (SG) (SG)
                 (DLTA) (DLTA) (PI) (PI) (SG) (SG) (SG) (PI) (PI)
                 (SG) (DLTA) (DLTA) (PI) (PI) (SG) (SG) (SG) (PI)
                 (PI) (SG) (SG) (SG) (PI) (PI) (SG) (SG) (SG) (PI)
                 (PI) (SG) (SG) (SG) (PI) (PI) (SG) (SG) (SG) (SG)
                 (SG) (SG) (SG) (SG) (SG)
 The electronic state of the initial guess is 1-SG.
 Leave Link  401 at Thu Feb  1 17:44:44 2018, MaxMem=   104857600 cpu:               1.2 elap:               1.4
 (Enter /appl/chem/G16RevA.03/g16/l502.exe)
 Integral symmetry usage will be decided dynamically.
 Restricted open shell SCF:
 Using DIIS extrapolation, IDIIS=  1040.
 NGot=   104857600 LenX=   104535930 LenY=   104378673
 Requested convergence on RMS density matrix=1.00D-08 within 128 cycles.
 Requested convergence on MAX density matrix=1.00D-06.
 Requested convergence on             energy=1.00D-06.
 No special actions if energy rises.
 Fock matrices will be formed incrementally for  20 cycles.

 Cycle   1  Pass 1  IDiag  1:
 FoFJK:  IHMeth= 1 ICntrl=     500 DoSepK=F KAlg= 0 I1Cent=           0 FoldK=F
 IRaf= 800000000 NMat=       1 IRICut=       1 DoRegI=T DoRafI=F ISym2E= 1 IDoP0=0 IntGTp=1.
 FoFCou: FMM=F IPFlag=           8 FMFlag=      100000 FMFlg1=           0
         NFxFlg=           0 DoJE=T BraDBF=F KetDBF=F FulRan=T
         wScrn=  0.000000 ICntrl=       500 IOpCl=  0 I1Cent=           0 NGrid=           0
         NMat0=    1 NMatS0=      1 NMatT0=    0 NMatD0=    1 NMtDS0=    0 NMtDT0=    0
 Petite list used in FoFCou.
 E= -17856.5531772394    
 DIIS: error= 1.28D+00 at cycle   1 NSaved=   1.
 NSaved= 1 IEnMin= 1 EnMin= -17856.5531772394     IErMin= 1 ErrMin= 1.28D+00
 ErrMax= 1.28D+00  0.00D+00 EMaxC= 1.00D-01 BMatC= 3.54D+02 BMatP= 3.54D+02
 IDIUse=3 WtCom= 0.00D+00 WtEn= 1.00D+00
 Coeff-Com:  0.100D+01
 Coeff-En:   0.100D+01
 Coeff:      0.100D+01
 Gap=     0.246 Goal=   None    Shift=    0.000
 GapD=    0.246 DampG=1.000 DampE=0.125 DampFc=0.1250 IDamp=-1.
 Damping current iteration by 1.25D-01
 RMSDP=6.77D-03 MaxDP=4.63D-01              OVMax= 5.94D-01

 Cycle   2  Pass 1  IDiag  1:
 RMSU=  7.85D-04    CP:  1.02D+00
 E= -17857.3047810056     Delta-E=       -0.751603766217 Rises=F Damp=T
 DIIS: error= 1.12D+00 at cycle   2 NSaved=   2.
 NSaved= 2 IEnMin= 2 EnMin= -17857.3047810056     IErMin= 2 ErrMin= 1.12D+00
 ErrMax= 1.12D+00  0.00D+00 EMaxC= 1.00D-01 BMatC= 2.53D+02 BMatP= 3.54D+02
 IDIUse=3 WtCom= 0.00D+00 WtEn= 1.00D+00
 Coeff-Com: -0.495D+01 0.595D+01
 Coeff-En:   0.000D+00 0.100D+01
 Coeff:      0.000D+00 0.100D+01
 Gap=     0.154 Goal=   None    Shift=    0.000
 RMSDP=4.49D-03 MaxDP=2.76D-01 DE=-7.52D-01 OVMax= 1.45D-01

 Cycle   3  Pass 1  IDiag  1:
 RMSU=  2.65D-03    CP:  1.10D+00  3.00D+00
 E= -17856.9996688499     Delta-E=        0.305112155678 Rises=F Damp=F
 DIIS: error= 3.99D-01 at cycle   3 NSaved=   3.
 NSaved= 3 IEnMin= 2 EnMin= -17857.3047810056     IErMin= 3 ErrMin= 3.99D-01
 ErrMax= 3.99D-01  0.00D+00 EMaxC= 1.00D-01 BMatC= 3.42D+01 BMatP= 2.53D+02
 IDIUse=3 WtCom= 0.00D+00 WtEn= 1.00D+00
 Large coefficients: NSaved=  3 BigCof=   10.03 CofMax=   10.00 Det=-7.09D-02
 Inversion failed.  Reducing to  2 matrices.
 Coeff-Com:  0.219D+00 0.781D+00
 Coeff-En:   0.532D+00 0.468D+00
 Coeff:      0.532D+00 0.468D+00
 Gap=     0.039 Goal=   None    Shift=    0.000
 RMSDP=4.45D-03 MaxDP=3.54D-01 DE= 3.05D-01 OVMax= 5.11D-01

 Cycle   4  Pass 1  IDiag  1:
 RMSU=  1.27D-03    CP:  1.01D+00  1.34D+00  2.16D-02
 E= -17859.3840238823     Delta-E=       -2.384355032405 Rises=F Damp=F
 DIIS: error= 7.84D-02 at cycle   4 NSaved=   3.
 NSaved= 3 IEnMin= 3 EnMin= -17859.3840238823     IErMin= 3 ErrMin= 7.84D-02
 ErrMax= 7.84D-02  0.00D+00 EMaxC= 1.00D-01 BMatC= 1.35D+00 BMatP= 3.42D+01
 IDIUse=3 WtCom= 2.16D-01 WtEn= 7.84D-01
 Coeff-Com:  0.414D-01 0.154D+00 0.804D+00
 Coeff-En:   0.000D+00 0.139D+00 0.861D+00
 Coeff:      0.894D-02 0.142D+00 0.849D+00
 Gap=     0.165 Goal=   None    Shift=    0.000
 RMSDP=3.45D-03 MaxDP=2.57D-01 DE=-2.38D+00 OVMax= 5.83D-01

 Cycle   5  Pass 1  IDiag  1:
 RMSU=  1.20D-03    CP:  1.06D+00  3.00D+00  4.98D-01 -4.13D-01
 E= -17859.3156325161     Delta-E=        0.068391366232 Rises=F Damp=F
 DIIS: error= 6.11D-02 at cycle   5 NSaved=   4.
 NSaved= 4 IEnMin= 3 EnMin= -17859.3840238823     IErMin= 4 ErrMin= 6.11D-02
 ErrMax= 6.11D-02  0.00D+00 EMaxC= 1.00D-01 BMatC= 8.83D-01 BMatP= 1.35D+00
 IDIUse=3 WtCom= 3.89D-01 WtEn= 6.11D-01
 Coeff-Com:  0.117D-01 0.102D-01 0.452D+00 0.526D+00
 Coeff-En:   0.000D+00 0.000D+00 0.528D+00 0.472D+00
 Coeff:      0.455D-02 0.396D-02 0.498D+00 0.493D+00
 Gap=     0.067 Goal=   None    Shift=    0.000
 RMSDP=2.49D-03 MaxDP=1.63D-01 DE= 6.84D-02 OVMax= 4.49D-01

 Cycle   6  Pass 1  IDiag  1:
 RMSU=  7.69D-04    CP:  1.03D+00  2.53D+00  7.11D-02  7.01D-01  1.49D-01
 E= -17859.7774063611     Delta-E=       -0.461773844945 Rises=F Damp=F
 DIIS: error= 1.17D-02 at cycle   6 NSaved=   5.
 NSaved= 5 IEnMin= 5 EnMin= -17859.7774063611     IErMin= 5 ErrMin= 1.17D-02
 ErrMax= 1.17D-02  0.00D+00 EMaxC= 1.00D-01 BMatC= 4.91D-02 BMatP= 8.83D-01
 IDIUse=3 WtCom= 8.83D-01 WtEn= 1.17D-01
 Coeff-Com:  0.205D-02-0.168D-01 0.176D+00 0.230D+00 0.609D+00
 Coeff-En:   0.000D+00 0.000D+00 0.000D+00 0.000D+00 0.100D+01
 Coeff:      0.181D-02-0.149D-01 0.155D+00 0.203D+00 0.655D+00
 Gap=     0.066 Goal=   None    Shift=    0.000
 RMSDP=9.85D-04 MaxDP=8.55D-02 DE=-4.62D-01 OVMax= 1.58D-01

 Cycle   7  Pass 1  IDiag  1:
 RMSU=  6.23D-04    CP:  1.03D+00  2.40D+00  6.87D-02  4.77D-01  4.88D-01
                    CP:  2.61D-01
 E= -17859.7857068010     Delta-E=       -0.008300439971 Rises=F Damp=F
 DIIS: error= 7.59D-03 at cycle   7 NSaved=   6.
 NSaved= 6 IEnMin= 6 EnMin= -17859.7857068010     IErMin= 6 ErrMin= 7.59D-03
 ErrMax= 7.59D-03  0.00D+00 EMaxC= 1.00D-01 BMatC= 1.84D-02 BMatP= 4.91D-02
 IDIUse=3 WtCom= 9.24D-01 WtEn= 7.59D-02
 Coeff-Com: -0.199D-03-0.805D-02 0.424D-01 0.723D-01 0.416D+00 0.478D+00
 Coeff-En:   0.000D+00 0.000D+00 0.000D+00 0.000D+00 0.395D+00 0.605D+00
 Coeff:     -0.184D-03-0.744D-02 0.392D-01 0.668D-01 0.414D+00 0.487D+00
 Gap=     0.071 Goal=   None    Shift=    0.000
 RMSDP=5.76D-04 MaxDP=5.79D-02 DE=-8.30D-03 OVMax= 9.64D-02

 Cycle   8  Pass 1  IDiag  1:
 RMSU=  1.38D-04    CP:  1.03D+00  2.42D+00  6.38D-02  6.36D-01  2.58D-01
                    CP:  6.41D-01  4.70D-01
 E= -17859.7970227354     Delta-E=       -0.011315934331 Rises=F Damp=F
 DIIS: error= 1.02D-03 at cycle   8 NSaved=   7.
 NSaved= 7 IEnMin= 7 EnMin= -17859.7970227354     IErMin= 7 ErrMin= 1.02D-03
 ErrMax= 1.02D-03  0.00D+00 EMaxC= 1.00D-01 BMatC= 3.20D-04 BMatP= 1.84D-02
 IDIUse=3 WtCom= 9.90D-01 WtEn= 1.02D-02
 Coeff-Com: -0.141D-03-0.293D-03-0.124D-02 0.782D-02 0.467D-01 0.162D+00
 Coeff-Com:  0.786D+00
 Coeff-En:   0.000D+00 0.000D+00 0.000D+00 0.000D+00 0.000D+00 0.000D+00
 Coeff-En:   0.100D+01
 Coeff:     -0.139D-03-0.290D-03-0.123D-02 0.774D-02 0.462D-01 0.160D+00
 Coeff:      0.788D+00
 Gap=     0.074 Goal=   None    Shift=    0.000
 RMSDP=1.57D-04 MaxDP=1.25D-02 DE=-1.13D-02 OVMax= 3.38D-02

 Cycle   9  Pass 1  IDiag  1:
 RMSU=  3.96D-05    CP:  1.03D+00  2.47D+00  6.87D-02  5.71D-01  3.31D-01
                    CP:  6.00D-01  5.60D-01  6.66D-01
 E= -17859.7973545763     Delta-E=       -0.000331840976 Rises=F Damp=F
 DIIS: error= 4.44D-04 at cycle   9 NSaved=   8.
 NSaved= 8 IEnMin= 8 EnMin= -17859.7973545763     IErMin= 8 ErrMin= 4.44D-04
 ErrMax= 4.44D-04  0.00D+00 EMaxC= 1.00D-01 BMatC= 8.09D-05 BMatP= 3.20D-04
 IDIUse=3 WtCom= 9.96D-01 WtEn= 4.44D-03
 Coeff-Com: -0.721D-05 0.106D-03-0.133D-03-0.777D-03 0.228D-01 0.692D-01
 Coeff-Com:  0.387D+00 0.522D+00
 Coeff-En:   0.000D+00 0.000D+00 0.000D+00 0.000D+00 0.000D+00 0.000D+00
 Coeff-En:   0.242D+00 0.758D+00
 Coeff:     -0.718D-05 0.105D-03-0.133D-03-0.774D-03 0.227D-01 0.689D-01
 Coeff:      0.386D+00 0.523D+00
 Gap=     0.073 Goal=   None    Shift=    0.000
 RMSDP=4.90D-05 MaxDP=2.97D-03 DE=-3.32D-04 OVMax= 1.15D-02

 Cycle  10  Pass 1  IDiag  1:
 RMSU=  4.45D-06    CP:  1.03D+00  2.45D+00  6.68D-02  5.93D-01  3.09D-01
                    CP:  6.00D-01  5.47D-01  7.82D-01  7.38D-01
 E= -17859.7974739360     Delta-E=       -0.000119359658 Rises=F Damp=F
 DIIS: error= 1.42D-05 at cycle  10 NSaved=   9.
 NSaved= 9 IEnMin= 9 EnMin= -17859.7974739360     IErMin= 9 ErrMin= 1.42D-05
 ErrMax= 1.42D-05  0.00D+00 EMaxC= 1.00D-01 BMatC= 7.62D-08 BMatP= 8.09D-05
 IDIUse=1 WtCom= 1.00D+00 WtEn= 0.00D+00
 Coeff-Com: -0.560D-06 0.103D-04-0.500D-04-0.630D-04 0.211D-03 0.110D-02
 Coeff-Com:  0.227D-01 0.349D-01 0.941D+00
 Coeff:     -0.560D-06 0.103D-04-0.500D-04-0.630D-04 0.211D-03 0.110D-02
 Coeff:      0.227D-01 0.349D-01 0.941D+00
 Gap=     0.073 Goal=   None    Shift=    0.000
 RMSDP=1.76D-06 MaxDP=1.11D-04 DE=-1.19D-04 OVMax= 2.79D-04

 Cycle  11  Pass 1  IDiag  1:
 RMSU=  6.97D-07    CP:  1.03D+00  2.45D+00  6.69D-02  5.92D-01  3.09D-01
                    CP:  6.00D-01  5.48D-01  7.79D-01  7.51D-01  1.09D+00
 E= -17859.7974739716     Delta-E=       -0.000000035572 Rises=F Damp=F
 DIIS: error= 5.03D-06 at cycle  11 NSaved=  10.
 NSaved=10 IEnMin=10 EnMin= -17859.7974739716     IErMin=10 ErrMin= 5.03D-06
 ErrMax= 5.03D-06  0.00D+00 EMaxC= 1.00D-01 BMatC= 1.06D-08 BMatP= 7.62D-08
 IDIUse=1 WtCom= 1.00D+00 WtEn= 0.00D+00
 Coeff-Com:  0.138D-06 0.578D-06 0.951D-05-0.434D-05 0.265D-03 0.496D-03
 Coeff-Com:  0.644D-02 0.245D-02 0.177D+00 0.813D+00
 Coeff:      0.138D-06 0.578D-06 0.951D-05-0.434D-05 0.265D-03 0.496D-03
 Coeff:      0.644D-02 0.245D-02 0.177D+00 0.813D+00
 Gap=     0.073 Goal=   None    Shift=    0.000
 RMSDP=6.55D-07 MaxDP=3.77D-05 DE=-3.56D-08 OVMax= 1.69D-04

 Cycle  12  Pass 1  IDiag  1:
 RMSU=  8.12D-08    CP:  1.03D+00  2.45D+00  6.68D-02  5.92D-01  3.09D-01
                    CP:  6.00D-01  5.48D-01  7.81D-01  7.47D-01  1.11D+00
                    CP:  1.05D+00
 E= -17859.7974739894     Delta-E=       -0.000000017801 Rises=F Damp=F
 DIIS: error= 7.71D-07 at cycle  12 NSaved=  11.
 NSaved=11 IEnMin=11 EnMin= -17859.7974739894     IErMin=11 ErrMin= 7.71D-07
 ErrMax= 7.71D-07  0.00D+00 EMaxC= 1.00D-01 BMatC= 1.60D-10 BMatP= 1.06D-08
 IDIUse=1 WtCom= 1.00D+00 WtEn= 0.00D+00
 Coeff-Com:  0.168D-07-0.300D-06 0.146D-05-0.571D-06 0.219D-04-0.527D-04
 Coeff-Com:  0.355D-03-0.262D-03 0.638D-02 0.144D+00 0.849D+00
 Coeff:      0.168D-07-0.300D-06 0.146D-05-0.571D-06 0.219D-04-0.527D-04
 Coeff:      0.355D-03-0.262D-03 0.638D-02 0.144D+00 0.849D+00
 Gap=     0.073 Goal=   None    Shift=    0.000
 RMSDP=6.56D-08 MaxDP=5.44D-06 DE=-1.78D-08 OVMax= 1.05D-05

 Cycle  13  Pass 1  IDiag  1:
 RMSU=  1.29D-08    CP:  1.03D+00  2.45D+00  6.68D-02  5.92D-01  3.09D-01
                    CP:  6.01D-01  5.47D-01  7.81D-01  7.48D-01  1.11D+00
                    CP:  1.08D+00  1.10D+00
 E= -17859.7974739894     Delta-E=       -0.000000000055 Rises=F Damp=F
 DIIS: error= 7.43D-08 at cycle  13 NSaved=  12.
 NSaved=12 IEnMin=12 EnMin= -17859.7974739894     IErMin=12 ErrMin= 7.43D-08
 ErrMax= 7.43D-08  0.00D+00 EMaxC= 1.00D-01 BMatC= 2.02D-12 BMatP= 1.60D-10
 IDIUse=1 WtCom= 1.00D+00 WtEn= 0.00D+00
 Coeff-Com:  0.968D-09-0.656D-07 0.208D-06 0.349D-07-0.853D-06-0.124D-04
 Coeff-Com: -0.115D-03-0.230D-04-0.968D-03 0.786D-03 0.950D-01 0.905D+00
 Coeff:      0.968D-09-0.656D-07 0.208D-06 0.349D-07-0.853D-06-0.124D-04
 Coeff:     -0.115D-03-0.230D-04-0.968D-03 0.786D-03 0.950D-01 0.905D+00
 Gap=     0.073 Goal=   None    Shift=    0.000
 RMSDP=1.37D-08 MaxDP=1.24D-06 DE=-5.46D-11 OVMax= 1.92D-06

 Cycle  14  Pass 1  IDiag  1:
 RMSU=  2.56D-09    CP:  1.03D+00  2.45D+00  6.68D-02  5.92D-01  3.09D-01
                    CP:  6.00D-01  5.47D-01  7.81D-01  7.48D-01  1.11D+00
                    CP:  1.09D+00  1.12D+00  1.07D+00
 E= -17859.7974739895     Delta-E=       -0.000000000029 Rises=F Damp=F
 DIIS: error= 9.40D-09 at cycle  14 NSaved=  13.
 NSaved=13 IEnMin=13 EnMin= -17859.7974739895     IErMin=13 ErrMin= 9.40D-09
 ErrMax= 9.40D-09  0.00D+00 EMaxC= 1.00D-01 BMatC= 4.50D-14 BMatP= 2.02D-12
 IDIUse=1 WtCom= 1.00D+00 WtEn= 0.00D+00
 Coeff-Com:  0.105D-09-0.115D-07 0.375D-07 0.776D-08-0.118D-07-0.116D-05
 Coeff-Com: -0.168D-04 0.634D-05-0.356D-03-0.132D-02 0.746D-02 0.181D+00
 Coeff-Com:  0.813D+00
 Coeff:      0.105D-09-0.115D-07 0.375D-07 0.776D-08-0.118D-07-0.116D-05
 Coeff:     -0.168D-04 0.634D-05-0.356D-03-0.132D-02 0.746D-02 0.181D+00
 Coeff:      0.813D+00
 Gap=     0.073 Goal=   None    Shift=    0.000
 RMSDP=1.62D-09 MaxDP=1.00D-07 DE=-2.91D-11 OVMax= 2.13D-07

 SCF Done:  E(ROS) =  -17859.7974740     A.U. after   14 cycles
            NFock= 14  Conv=0.16D-08     -V/T= 2.0000
 <Sx>= 0.0000 <Sy>= 0.0000 <Sz>= 0.0000 <S**2>=-0.0000 S=-0.0000
 <L.S>= 0.000000000000E+00
 KE= 1.785988041103D+04 PE=-4.267563822897D+04 EE= 6.900882491297D+03
 Annihilation of the first spin contaminant:
 S**2 before annihilation    -0.0000,   after     0.0000
 Leave Link  502 at Thu Feb  1 17:47:49 2018, MaxMem=   104857600 cpu:             184.2 elap:             184.9
 (Enter /appl/chem/G16RevA.03/g16/l601.exe)
 Copying SCF densities to generalized density rwf, IOpCl= 0 IROHF=1.

 **********************************************************************

            Population analysis using the SCF density.

 **********************************************************************

 Orbital symmetries:
       Occupied  (SG) (SG) (SG) (PI) (PI) (SG) (SG) (PI) (PI) (SG)
                 (PI) (PI) (DLTA) (DLTA) (SG) (SG) (PI) (PI) (SG)
                 (PI) (PI) (DLTA) (DLTA) (SG) (PI) (PI) (DLTA)
                 (DLTA) (PHI) (PHI) (SG) (SG) (PI) (PI) (SG) (SG)
                 (PI) (PI) (DLTA) (DLTA) (SG)
       Virtual   (SG) (PI) (PI) (SG) (SG) (SG) (PI) (PI) (PI) (PI)
                 (SG) (SG) (SG) (PI) (PI) (SG) (DLTA) (DLTA) (PI)
                 (PI) (SG) (PI) (PI) (SG) (SG) (SG) (PI) (PI) (SG)
                 (PI) (PI) (SG) (SG) (DLTA) (DLTA) (PI) (PI) (DLTA)
                 (DLTA) (PHI) (PHI) (PI) (PI) (SG) (SG) (SG) (PI)
                 (PI) (SG) (SG) (PI) (PI) (SG) (DLTA) (DLTA) (PI)
                 (PI) (DLTA) (DLTA) (PHI) (PHI) (PI) (PI) (SG)
                 (SG) (SG) (PI) (PI) (SG) (SG) (PI) (PI) (SG) (DLTA)
                 (DLTA) (PI) (PI) (DLTA) (DLTA) (PHI) (PHI) (PI)
                 (PI) (SG) (SG) (PI) (PI) (SG) (SG) (SG) (PI) (PI)
                 (SG) (DLTA) (DLTA) (PHI) (PHI) (PI) (PI) (SG)
                 (DLTA) (DLTA) (PI) (PI) (SG) (PI) (PI) (SG) (SG)
                 (SG) (PI) (PI) (SG) (DLTA) (DLTA) (PHI) (PHI)
                 (PI) (PI) (SG) (DLTA) (DLTA) (PI) (PI) (SG) (SG)
                 (PI) (PI) (SG) (PI) (PI) (SG) (SG) (DLTA) (DLTA)
                 (PHI) (PHI) (PI) (PI) (SG) (SG) (DLTA) (DLTA)
                 (PI) (PI) (SG) (PI) (PI) (SG) (PI) (PI) (SG) (DLTA)
                 (DLTA) (PHI) (PHI) (PI) (PI) (SG) (SG) (SG) (PI)
                 (PI) (SG) (DLTA) (DLTA) (PI) (PI) (SG) (DLTA)
                 (DLTA) (PHI) (PHI) (PI) (PI) (SG) (SG) (PI) (PI)
                 (SG) (PI) (PI) (SG) (SG) (DLTA) (DLTA) (PI) (PI)
                 (SG) (SG) (DLTA) (DLTA) (PHI) (PHI) (PI) (PI)
                 (SG) (PI) (PI) (SG) (PI) (PI) (SG) (DLTA) (DLTA)
                 (PI) (PI) (SG) (SG) (SG) (DLTA) (DLTA) (PHI) (PHI)
                 (PI) (PI) (SG) (PI) (PI) (SG) (SG) (DLTA) (DLTA)
                 (PI) (PI) (SG) (SG) (DLTA) (DLTA) (PHI) (PHI)
                 (PI) (PI) (SG) (PI) (PI) (SG) (SG) (DLTA) (DLTA)
                 (PI) (PI) (SG) (SG) (PI) (PI) (SG) (SG) (DLTA)
                 (DLTA) (PI) (PI) (SG) (SG) (PI) (PI) (SG) (SG)
                 (DLTA) (DLTA) (PI) (PI) (SG) (SG) (SG) (PI) (PI)
                 (SG) (DLTA) (DLTA) (PI) (PI) (SG) (SG) (SG) (PI)
                 (PI) (SG) (SG) (SG) (PI) (PI) (SG) (SG) (SG) (PI)
                 (PI) (SG) (SG) (SG) (PI) (PI) (SG) (SG) (SG) (SG)
                 (SG) (SG) (SG) (SG) (SG)
 The electronic state is 1-SG.
 Alpha  occ. eigenvalues -- **********-447.78486-430.61973-430.61914-430.61914
 Alpha  occ. eigenvalues -- -104.73235 -96.61492 -96.61373 -96.61373 -81.41832
 Alpha  occ. eigenvalues --  -81.41808 -81.41808 -81.41728 -81.41728 -21.99230
 Alpha  occ. eigenvalues --  -18.49450 -18.49184 -18.49184 -12.04760 -12.04702
 Alpha  occ. eigenvalues --  -12.04702 -12.04503 -12.04503  -3.40379  -3.40348
 Alpha  occ. eigenvalues --   -3.40348  -3.40253  -3.40253  -3.40084  -3.40084
 Alpha  occ. eigenvalues --   -3.03592  -1.93038  -1.92168  -1.92168  -1.80363
 Alpha  occ. eigenvalues --   -0.24204  -0.23435  -0.23435  -0.22321  -0.22321
 Alpha  occ. eigenvalues --   -0.12295
 Alpha virt. eigenvalues --   -0.05029  -0.02258  -0.02258   0.00596   0.03350
 Alpha virt. eigenvalues --    0.03570   0.04693   0.04693   0.13214   0.13214
 Alpha virt. eigenvalues --    0.13947   0.15295   0.16212   0.16843   0.16843
 Alpha virt. eigenvalues --    0.28540   0.33021   0.33021   0.37006   0.37006
 Alpha virt. eigenvalues --    0.41110   0.41636   0.41636   0.46650   0.47805
 Alpha virt. eigenvalues --    0.50953   0.85572   0.85572   0.88117   0.94051
 Alpha virt. eigenvalues --    0.94051   1.00759   1.15042   1.20240   1.20240
 Alpha virt. eigenvalues --    1.22214   1.22214   1.24276   1.24276   1.25167
 Alpha virt. eigenvalues --    1.25167   1.26233   1.26233   1.30216   1.33325
 Alpha virt. eigenvalues --    1.45453   2.01099   2.01099   2.03533   2.74537
 Alpha virt. eigenvalues --    2.81017   2.81017   2.97270   3.21638   3.21638
 Alpha virt. eigenvalues --    3.23805   3.23805   3.30137   3.30137   3.30858
 Alpha virt. eigenvalues --    3.30858   3.31939   3.31939   3.34918   3.42900
 Alpha virt. eigenvalues --    3.51163   4.19543   4.19543   4.24381   6.12545
 Alpha virt. eigenvalues --    7.88947   7.88947   7.97023   7.97296   7.97300
 Alpha virt. eigenvalues --    8.00057   8.00057   8.02827   8.02829   8.03351
 Alpha virt. eigenvalues --    8.03351   8.04451   8.04451   8.12195   8.17351
 Alpha virt. eigenvalues --    8.61098   8.61098   8.70561   9.48226  13.15763
 Alpha virt. eigenvalues --   17.51393  17.51393  17.55128  18.36321  18.36321
 Alpha virt. eigenvalues --   18.36676  18.36676  18.37653  18.37653  18.47871
 Alpha virt. eigenvalues --   19.83509  19.83510  19.85764  19.85764  19.92195
 Alpha virt. eigenvalues --   21.94177  21.94177  22.12779  27.09320  27.65254
 Alpha virt. eigenvalues --   35.43639  35.43639  35.48151  41.25354  41.25357
 Alpha virt. eigenvalues --   41.25585  41.25585  41.26429  41.26429  41.34450
 Alpha virt. eigenvalues --   50.35585  50.35586  50.37568  50.37568  50.42678
 Alpha virt. eigenvalues --   57.17368  62.31952  62.31952  62.48115  71.43132
 Alpha virt. eigenvalues --   71.43132  71.47562  81.02827  92.52554  92.52555
 Alpha virt. eigenvalues --   92.52703  92.52703  92.53406  92.53406  92.59664
 Alpha virt. eigenvalues --  116.72077 127.90864 127.90864 127.92511 127.92511
 Alpha virt. eigenvalues --  127.96599 143.81553 143.81553 143.85714 176.46567
 Alpha virt. eigenvalues --  176.46567 176.60463 207.62490 207.62490 207.62590
 Alpha virt. eigenvalues --  207.62590 207.63160 207.63160 207.68033 235.92720
 Alpha virt. eigenvalues --  242.36016 290.26850 290.26850 290.30682 316.63663
 Alpha virt. eigenvalues --  316.63663 316.65007 316.65007 316.68304 463.51168
 Alpha virt. eigenvalues --  463.51168 463.51240 463.51240 463.51695 463.51695
 Alpha virt. eigenvalues --  463.55509 473.18076 477.04679 477.04679 477.16486
 Alpha virt. eigenvalues --  595.25291 595.25291 595.28845 687.27170 751.13867
 Alpha virt. eigenvalues --  751.13867 751.14974 751.14974 751.17646 943.29880
 Alpha virt. eigenvalues -- 1022.929101022.929101022.929641022.929641022.93326
 Alpha virt. eigenvalues -- 1022.933261022.963391199.696261199.696261199.79763
 Alpha virt. eigenvalues -- 1276.006051276.006051276.038521706.952141706.95214
 Alpha virt. eigenvalues -- 1706.961421706.961421706.983651802.986571871.82467
 Alpha virt. eigenvalues -- 2250.163462250.163462250.163872250.163872250.16677
 Alpha virt. eigenvalues -- 2250.166772250.190682817.807012817.807012817.89580
 Alpha virt. eigenvalues -- 3701.543663743.646403743.646403743.654313743.65431
 Alpha virt. eigenvalues -- 3743.673134390.500374981.901394981.901394981.90165
 Alpha virt. eigenvalues -- 4981.901654981.903994981.903994981.922606280.33132
 Alpha virt. eigenvalues -- 6280.331326280.410557301.978217999.679247999.67924
 Alpha virt. eigenvalues -- 7999.686077999.686077999.70217********************
 Alpha virt. eigenvalues -- **************************************************
 Alpha virt. eigenvalues -- **************************************************
 Alpha virt. eigenvalues -- **************************************************
 Alpha virt. eigenvalues -- **************************************************
 Alpha virt. eigenvalues -- **************************************************
 Alpha virt. eigenvalues -- **************************************************
 Alpha virt. eigenvalues -- **************************************************
 Alpha virt. eigenvalues -- **************************************************
 Alpha virt. eigenvalues -- **************************************************
 Alpha virt. eigenvalues -- **************************************************
 Alpha virt. eigenvalues -- **************************************************
 Alpha virt. eigenvalues -- **********
          Condensed to atoms (all electrons):
               1          2
     1  Au  78.812861   0.406138
     2  Li   0.406138   2.374862
          Atomic-Atomic Spin Densities.
               1          2
     1  Au   0.000000   0.000000
     2  Li   0.000000   0.000000
 Mulliken charges and spin densities:
               1          2
     1  Au  -0.219000   0.000000
     2  Li   0.219000   0.000000
 Sum of Mulliken charges =  -0.00000   0.00000
 Mulliken charges and spin densities with hydrogens summed into heavy atoms:
               1          2
     1  Au  -0.219000   0.000000
     2  Li   0.219000   0.000000
 Electronic spatial extent (au):  <R**2>=            120.8718
 Charge=             -0.0000 electrons
 Dipole moment (field-independent basis, Debye):
    X=              0.0000    Y=              0.0000    Z=             -4.0557  Tot=              4.0557
 Quadrupole moment (field-independent basis, Debye-Ang):
   XX=            -35.9905   YY=            -35.9905   ZZ=            -18.6158
   XY=              0.0000   XZ=              0.0000   YZ=              0.0000
 Traceless Quadrupole moment (field-independent basis, Debye-Ang):
   XX=             -5.7916   YY=             -5.7916   ZZ=             11.5831
   XY=              0.0000   XZ=              0.0000   YZ=              0.0000
 Octapole moment (field-independent basis, Debye-Ang**2):
  XXX=              0.0000  YYY=              0.0000  ZZZ=            -23.4359  XYY=              0.0000
  XXY=              0.0000  XXZ=              7.1584  XZZ=              0.0000  YZZ=              0.0000
  YYZ=              7.1584  XYZ=              0.0000
 Hexadecapole moment (field-independent basis, Debye-Ang**3):
 XXXX=            -71.4714 YYYY=            -71.4714 ZZZZ=            -32.6211 XXXY=              0.0000
 XXXZ=              0.0000 YYYX=              0.0000 YYYZ=              0.0000 ZZZX=              0.0000
 ZZZY=              0.0000 XXYY=            -23.8238 XXZZ=            -35.6378 YYZZ=            -35.6378
 XXYZ=              0.0000 YYXZ=              0.0000 ZZXY=              0.0000
 N-N= 5.507785266093D+01 E-N=-4.267563823553D+04  KE= 1.785988041103D+04
 Symmetry A1   KE= 1.155946054756D+04
 Symmetry A2   KE= 6.984001177495D+02
 Symmetry B1   KE= 2.801009872849D+03
 Symmetry B2   KE= 2.801009872847D+03
 Symmetry A1   SP= 0.000000000000D+00
 Symmetry A2   SP= 0.000000000000D+00
 Symmetry B1   SP= 0.000000000000D+00
 Symmetry B2   SP= 0.000000000000D+00
                          Isotropic Fermi Contact Couplings
        Atom                 a.u.       MegaHertz       Gauss      10(-4) cm-1
     1  Au(197             0.00000       0.00000       0.00000       0.00000
     2  Li(7)              0.00000       0.00000       0.00000       0.00000
 --------------------------------------------------------
       Center         ----  Spin Dipole Couplings  ----
                      3XX-RR        3YY-RR        3ZZ-RR
 --------------------------------------------------------
     1   Atom        0.000000      0.000000      0.000000
     2   Atom        0.000000      0.000000      0.000000
 --------------------------------------------------------
                        XY            XZ            YZ
 --------------------------------------------------------
     1   Atom        0.000000      0.000000      0.000000
     2   Atom        0.000000      0.000000      0.000000
 --------------------------------------------------------


 ---------------------------------------------------------------------------------
              Anisotropic Spin Dipole Couplings in Principal Axis System
 ---------------------------------------------------------------------------------

       Atom             a.u.   MegaHertz   Gauss  10(-4) cm-1        Axes

              Baa     0.0000     0.000     0.000     0.000  1.0000  0.0000  0.0000
     1 Au(197 Bbb     0.0000     0.000     0.000     0.000 -0.0000  1.0000  0.0000
              Bcc     0.0000     0.000     0.000     0.000  0.0000  0.0000  1.0000
 
              Baa     0.0000     0.000     0.000     0.000  1.0000  0.0000  0.0000
     2 Li(7)  Bbb     0.0000     0.000     0.000     0.000 -0.0000  1.0000  0.0000
              Bcc     0.0000     0.000     0.000     0.000  0.0000  0.0000  1.0000
 

 ---------------------------------------------------------------------------------

 No NMR shielding tensors so no spin-rotation constants.
 Leave Link  601 at Thu Feb  1 17:47:50 2018, MaxMem=   104857600 cpu:               0.6 elap:               0.9
 (Enter /appl/chem/G16RevA.03/g16/l9999.exe)
 1\1\GINC-C740\SP\ROHFS\UGBS\Au1Li1\SLEHTOLA\01-Feb-2018\0\\#P ROHFS/UG
 BS units=au punch=mo gfinput integral(grid=350590,noxctest)\\Gold-lith
 ium\\0,1\Au\Li,1,2.2770495386\\Version=ES64L-G16RevA.03\State=1-SG\HF=
 -17859.797474\RMSD=1.617e-09\Dipole=0.,0.,1.595622\Quadrupole=-4.30589
 23,-4.3058923,8.6117846,0.,0.,0.\PG=C*V [C*(Li1Au1)]\\@


 BRING ME INTO THE COMPANY OF THOSE WHO SEEK TRUTH,
 AND DELIVER ME FROM THOSE WHO HAVE FOUND IT.
 Job cpu time:       0 days  0 hours  3 minutes  7.4 seconds.
 Elapsed time:       0 days  0 hours  3 minutes 10.0 seconds.
 File lengths (MBytes):  RWF=     86 Int=      0 D2E=      0 Chk=      9 Scr=      1
 Normal termination of Gaussian 16 at Thu Feb  1 17:47:50 2018.
