 Entering Gaussian System, Link 0=/appl/chem/G16RevA.03/g16/g16
 Initial command:
 /appl/chem/G16RevA.03/g16/l1.exe "/wrk/slehtola/18264550.GAUSS_SCRDIR/Gau-14751.inp" -scrdir="/wrk/slehtola/18264550.GAUSS_SCRDIR/"
 Entering Link 1 = /appl/chem/G16RevA.03/g16/l1.exe PID=     14755.
  
 Copyright (c) 1988,1990,1992,1993,1995,1998,2003,2009,2016,
            Gaussian, Inc.  All Rights Reserved.
  
 This is part of the Gaussian(R) 16 program.  It is based on
 the Gaussian(R) 09 system (copyright 2009, Gaussian, Inc.),
 the Gaussian(R) 03 system (copyright 2003, Gaussian, Inc.),
 the Gaussian(R) 98 system (copyright 1998, Gaussian, Inc.),
 the Gaussian(R) 94 system (copyright 1995, Gaussian, Inc.),
 the Gaussian 92(TM) system (copyright 1992, Gaussian, Inc.),
 the Gaussian 90(TM) system (copyright 1990, Gaussian, Inc.),
 the Gaussian 88(TM) system (copyright 1988, Gaussian, Inc.),
 the Gaussian 86(TM) system (copyright 1986, Carnegie Mellon
 University), and the Gaussian 82(TM) system (copyright 1983,
 Carnegie Mellon University). Gaussian is a federally registered
 trademark of Gaussian, Inc.
  
 This software contains proprietary and confidential information,
 including trade secrets, belonging to Gaussian, Inc.
  
 This software is provided under written license and may be
 used, copied, transmitted, or stored only in accord with that
 written license.
  
 The following legend is applicable only to US Government
 contracts under FAR:
  
                    RESTRICTED RIGHTS LEGEND
  
 Use, reproduction and disclosure by the US Government is
 subject to restrictions as set forth in subparagraphs (a)
 and (c) of the Commercial Computer Software - Restricted
 Rights clause in FAR 52.227-19.
  
 Gaussian, Inc.
 340 Quinnipiac St., Bldg. 40, Wallingford CT 06492
  
  
 ---------------------------------------------------------------
 Warning -- This program may not be used in any manner that
 competes with the business of Gaussian, Inc. or will provide
 assistance to any competitor of Gaussian, Inc.  The licensee
 of this program is prohibited from giving any competitor of
 Gaussian, Inc. access to this program.  By using this program,
 the user acknowledges that Gaussian, Inc. is engaged in the
 business of creating and licensing software in the field of
 computational chemistry and represents and warrants to the
 licensee that it is not a competitor of Gaussian, Inc. and that
 it will not use this program in any manner prohibited above.
 ---------------------------------------------------------------
  

 Cite this work as:
 Gaussian 16, Revision A.03,
 M. J. Frisch, G. W. Trucks, H. B. Schlegel, G. E. Scuseria, 
 M. A. Robb, J. R. Cheeseman, G. Scalmani, V. Barone, 
 G. A. Petersson, H. Nakatsuji, X. Li, M. Caricato, A. V. Marenich, 
 J. Bloino, B. G. Janesko, R. Gomperts, B. Mennucci, H. P. Hratchian, 
 J. V. Ortiz, A. F. Izmaylov, J. L. Sonnenberg, D. Williams-Young, 
 F. Ding, F. Lipparini, F. Egidi, J. Goings, B. Peng, A. Petrone, 
 T. Henderson, D. Ranasinghe, V. G. Zakrzewski, J. Gao, N. Rega, 
 G. Zheng, W. Liang, M. Hada, M. Ehara, K. Toyota, R. Fukuda, 
 J. Hasegawa, M. Ishida, T. Nakajima, Y. Honda, O. Kitao, H. Nakai, 
 T. Vreven, K. Throssell, J. A. Montgomery, Jr., J. E. Peralta, 
 F. Ogliaro, M. J. Bearpark, J. J. Heyd, E. N. Brothers, K. N. Kudin, 
 V. N. Staroverov, T. A. Keith, R. Kobayashi, J. Normand, 
 K. Raghavachari, A. P. Rendell, J. C. Burant, S. S. Iyengar, 
 J. Tomasi, M. Cossi, J. M. Millam, M. Klene, C. Adamo, R. Cammi, 
 J. W. Ochterski, R. L. Martin, K. Morokuma, O. Farkas, 
 J. B. Foresman, and D. J. Fox, Gaussian, Inc., Wallingford CT, 2016.
 
 ******************************************
 Gaussian 16:  ES64L-G16RevA.03 25-Dec-2016
                 3-Feb-2018 
 ******************************************
 %Mem=64GB
 %NProcShared=12
 Will use up to   12 processors via shared memory.
 --------------------------------------------------------------
 #P ROHF/UGBS1P units=au punch=mo gfinput integral(grid=450590)
 --------------------------------------------------------------
 1/20=1,38=1,172=1/1;
 2/12=2,17=6,18=5,40=1/2;
 3/5=23,7=7,11=2,24=10,25=1,30=1,75=450590,116=101/1,2,3;
 4//1;
 5/5=2,38=5/2;
 6/7=2,8=2,9=2,10=2,28=1/1;
 99/5=1,9=1,10=32/99;
 Leave Link    1 at Sat Feb  3 16:05:46 2018, MaxMem=  8589934592 cpu:               0.8 elap:               0.1
 (Enter /appl/chem/G16RevA.03/g16/l101.exe)
 ------------
 Gold-lithium
 ------------
 Symbolic Z-matrix:
 Charge =  0 Multiplicity = 1
 Au
 Li                   1    R
       Variables:
  R                     4.303                    
 
 ITRead=  0  0
 MicOpt= -1 -1
 NAtoms=      2 NQM=        2 NQMF=       0 NMMI=      0 NMMIF=      0
                NMic=       0 NMicF=      0.
                    Isotopes and Nuclear Properties:
 (Nuclear quadrupole moments (NQMom) in fm**2, nuclear magnetic moments (NMagM)
  in nuclear magnetons)

  Atom         1           2
 IAtWgt=         197           7
 AtmWgt= 196.9666000   7.0160045
 NucSpn=           3           3
 AtZEff=  -0.0000000  -0.0000000
 NQMom=   54.7000000  -4.0100000
 NMagM=    0.1481590   3.2564240
 AtZNuc=  79.0000000   3.0000000
 Leave Link  101 at Sat Feb  3 16:05:46 2018, MaxMem=  8589934592 cpu:               2.4 elap:               0.2
 (Enter /appl/chem/G16RevA.03/g16/l202.exe)
                          Input orientation:                          
 ---------------------------------------------------------------------
 Center     Atomic      Atomic             Coordinates (Angstroms)
 Number     Number       Type             X           Y           Z
 ---------------------------------------------------------------------
      1         79           0        0.000000    0.000000    0.000000
      2          3           0        0.000000    0.000000    2.277050
 ---------------------------------------------------------------------
 Stoichiometry    AuLi
 Framework group  C*V[C*(LiAu)]
 Deg. of freedom     1
 Full point group                 C*V     NOp   4
 Largest Abelian subgroup         C2V     NOp   4
 Largest concise Abelian subgroup C1      NOp   1
                         Standard orientation:                         
 ---------------------------------------------------------------------
 Center     Atomic      Atomic             Coordinates (Angstroms)
 Number     Number       Type             X           Y           Z
 ---------------------------------------------------------------------
      1         79           0        0.000000    0.000000    0.083307
      2          3           0        0.000000    0.000000   -2.193743
 ---------------------------------------------------------------------
 Rotational constants (GHZ):           0.0000000          14.3874202          14.3874202
 Leave Link  202 at Sat Feb  3 16:05:46 2018, MaxMem=  8589934592 cpu:               0.1 elap:               0.0
 (Enter /appl/chem/G16RevA.03/g16/l301.exe)
 Standard basis: UGBS1P (5D, 7F)
 Ernie: Thresh=  0.10000D-02 Tol=  0.10000D-05 Strict=F.
 AO basis set in the form of general basis input (Overlap normalization):
      1 0
 S   1 1.00       0.000000000000
      0.4366249266D+08  0.1000000000D+01
 S   1 1.00       0.000000000000
      0.2229783173D+08  0.1000000000D+01
 S   1 1.00       0.000000000000
      0.1138719459D+08  0.1000000000D+01
 S   1 1.00       0.000000000000
      0.5815282942D+07  0.1000000000D+01
 S   1 1.00       0.000000000000
      0.2969784651D+07  0.1000000000D+01
 S   1 1.00       0.000000000000
      0.1516627989D+07  0.1000000000D+01
 S   1 1.00       0.000000000000
      0.7745209592D+06  0.1000000000D+01
 S   1 1.00       0.000000000000
      0.3955371526D+06  0.1000000000D+01
 S   1 1.00       0.000000000000
      0.2019953588D+06  0.1000000000D+01
 S   1 1.00       0.000000000000
      0.1031562389D+06  0.1000000000D+01
 S   1 1.00       0.000000000000
      0.5268046591D+05  0.1000000000D+01
 S   1 1.00       0.000000000000
      0.2690318607D+05  0.1000000000D+01
 S   1 1.00       0.000000000000
      0.1373908542D+05  0.1000000000D+01
 S   1 1.00       0.000000000000
      0.7016361094D+04  0.1000000000D+01
 S   1 1.00       0.000000000000
      0.3583158668D+04  0.1000000000D+01
 S   1 1.00       0.000000000000
      0.1829869625D+04  0.1000000000D+01
 S   1 1.00       0.000000000000
      0.9344891347D+03  0.1000000000D+01
 S   1 1.00       0.000000000000
      0.4772306896D+03  0.1000000000D+01
 S   1 1.00       0.000000000000
      0.2437151195D+03  0.1000000000D+01
 S   1 1.00       0.000000000000
      0.1244619442D+03  0.1000000000D+01
 S   1 1.00       0.000000000000
      0.6356099525D+02  0.1000000000D+01
 S   1 1.00       0.000000000000
      0.3245972208D+02  0.1000000000D+01
 S   1 1.00       0.000000000000
      0.1657673158D+02  0.1000000000D+01
 S   1 1.00       0.000000000000
      0.8465507783D+01  0.1000000000D+01
 S   1 1.00       0.000000000000
      0.4323217860D+01  0.1000000000D+01
 S   1 1.00       0.000000000000
      0.2207807629D+01  0.1000000000D+01
 S   1 1.00       0.000000000000
      0.1127496852D+01  0.1000000000D+01
 S   1 1.00       0.000000000000
      0.5757970639D+00  0.1000000000D+01
 S   1 1.00       0.000000000000
      0.2940516050D+00  0.1000000000D+01
 S   1 1.00       0.000000000000
      0.1501680918D+00  0.1000000000D+01
 S   1 1.00       0.000000000000
      0.7668876969D-01  0.1000000000D+01
 S   1 1.00       0.000000000000
      0.3916389510D-01  0.1000000000D+01
 P   1 1.00       0.000000000000
      0.4366249266D+08  0.1000000000D+01
 P   1 1.00       0.000000000000
      0.2229783173D+08  0.1000000000D+01
 P   1 1.00       0.000000000000
      0.1138719459D+08  0.1000000000D+01
 P   1 1.00       0.000000000000
      0.5815282942D+07  0.1000000000D+01
 P   1 1.00       0.000000000000
      0.2969784651D+07  0.1000000000D+01
 P   1 1.00       0.000000000000
      0.1516627989D+07  0.1000000000D+01
 P   1 1.00       0.000000000000
      0.7745209592D+06  0.1000000000D+01
 P   1 1.00       0.000000000000
      0.3955371526D+06  0.1000000000D+01
 P   1 1.00       0.000000000000
      0.2019953588D+06  0.1000000000D+01
 P   1 1.00       0.000000000000
      0.1031562389D+06  0.1000000000D+01
 P   1 1.00       0.000000000000
      0.5268046591D+05  0.1000000000D+01
 P   1 1.00       0.000000000000
      0.2690318607D+05  0.1000000000D+01
 P   1 1.00       0.000000000000
      0.1373908542D+05  0.1000000000D+01
 P   1 1.00       0.000000000000
      0.7016361094D+04  0.1000000000D+01
 P   1 1.00       0.000000000000
      0.3583158668D+04  0.1000000000D+01
 P   1 1.00       0.000000000000
      0.1829869625D+04  0.1000000000D+01
 P   1 1.00       0.000000000000
      0.9344891347D+03  0.1000000000D+01
 P   1 1.00       0.000000000000
      0.4772306896D+03  0.1000000000D+01
 P   1 1.00       0.000000000000
      0.2437151195D+03  0.1000000000D+01
 P   1 1.00       0.000000000000
      0.1244619442D+03  0.1000000000D+01
 P   1 1.00       0.000000000000
      0.6356099525D+02  0.1000000000D+01
 P   1 1.00       0.000000000000
      0.3245972208D+02  0.1000000000D+01
 P   1 1.00       0.000000000000
      0.1657673158D+02  0.1000000000D+01
 P   1 1.00       0.000000000000
      0.8465507783D+01  0.1000000000D+01
 P   1 1.00       0.000000000000
      0.4323217860D+01  0.1000000000D+01
 P   1 1.00       0.000000000000
      0.2207807629D+01  0.1000000000D+01
 P   1 1.00       0.000000000000
      0.1127496852D+01  0.1000000000D+01
 P   1 1.00       0.000000000000
      0.5757970639D+00  0.1000000000D+01
 P   1 1.00       0.000000000000
      0.2940516050D+00  0.1000000000D+01
 P   1 1.00       0.000000000000
      0.1501680918D+00  0.1000000000D+01
 P   1 1.00       0.000000000000
      0.7668876969D-01  0.1000000000D+01
 P   1 1.00       0.000000000000
      0.3916389510D-01  0.1000000000D+01
 D   1 1.00       0.000000000000
      0.2019953588D+06  0.1000000000D+01
 D   1 1.00       0.000000000000
      0.1031562389D+06  0.1000000000D+01
 D   1 1.00       0.000000000000
      0.5268046591D+05  0.1000000000D+01
 D   1 1.00       0.000000000000
      0.2690318607D+05  0.1000000000D+01
 D   1 1.00       0.000000000000
      0.1373908542D+05  0.1000000000D+01
 D   1 1.00       0.000000000000
      0.7016361094D+04  0.1000000000D+01
 D   1 1.00       0.000000000000
      0.3583158668D+04  0.1000000000D+01
 D   1 1.00       0.000000000000
      0.1829869625D+04  0.1000000000D+01
 D   1 1.00       0.000000000000
      0.9344891347D+03  0.1000000000D+01
 D   1 1.00       0.000000000000
      0.4772306896D+03  0.1000000000D+01
 D   1 1.00       0.000000000000
      0.2437151195D+03  0.1000000000D+01
 D   1 1.00       0.000000000000
      0.1244619442D+03  0.1000000000D+01
 D   1 1.00       0.000000000000
      0.6356099525D+02  0.1000000000D+01
 D   1 1.00       0.000000000000
      0.3245972208D+02  0.1000000000D+01
 D   1 1.00       0.000000000000
      0.1657673158D+02  0.1000000000D+01
 D   1 1.00       0.000000000000
      0.8465507783D+01  0.1000000000D+01
 D   1 1.00       0.000000000000
      0.4323217860D+01  0.1000000000D+01
 D   1 1.00       0.000000000000
      0.2207807629D+01  0.1000000000D+01
 D   1 1.00       0.000000000000
      0.1127496852D+01  0.1000000000D+01
 D   1 1.00       0.000000000000
      0.5757970639D+00  0.1000000000D+01
 D   1 1.00       0.000000000000
      0.2940516050D+00  0.1000000000D+01
 D   1 1.00       0.000000000000
      0.1501680918D+00  0.1000000000D+01
 F   1 1.00       0.000000000000
      0.1373908542D+05  0.1000000000D+01
 F   1 1.00       0.000000000000
      0.7016361094D+04  0.1000000000D+01
 F   1 1.00       0.000000000000
      0.3583158668D+04  0.1000000000D+01
 F   1 1.00       0.000000000000
      0.1829869625D+04  0.1000000000D+01
 F   1 1.00       0.000000000000
      0.9344891347D+03  0.1000000000D+01
 F   1 1.00       0.000000000000
      0.4772306896D+03  0.1000000000D+01
 F   1 1.00       0.000000000000
      0.2437151195D+03  0.1000000000D+01
 F   1 1.00       0.000000000000
      0.1244619442D+03  0.1000000000D+01
 F   1 1.00       0.000000000000
      0.6356099525D+02  0.1000000000D+01
 F   1 1.00       0.000000000000
      0.3245972208D+02  0.1000000000D+01
 F   1 1.00       0.000000000000
      0.1657673158D+02  0.1000000000D+01
 F   1 1.00       0.000000000000
      0.8465507783D+01  0.1000000000D+01
 F   1 1.00       0.000000000000
      0.4323217860D+01  0.1000000000D+01
 F   1 1.00       0.000000000000
      0.2207807629D+01  0.1000000000D+01
 F   1 1.00       0.000000000000
      0.1127496852D+01  0.1000000000D+01
 F   1 1.00       0.000000000000
      0.5757970639D+00  0.1000000000D+01
 F   1 1.00       0.000000000000
      0.2940516050D+00  0.1000000000D+01
 F   1 1.00       0.000000000000
      0.1501680918D+00  0.1000000000D+01
 G   1 1.00       0.000000000000
      0.9344891347D+03  0.1000000000D+01
 G   1 1.00       0.000000000000
      0.4772306896D+03  0.1000000000D+01
 G   1 1.00       0.000000000000
      0.2437151195D+03  0.1000000000D+01
 G   1 1.00       0.000000000000
      0.1244619442D+03  0.1000000000D+01
 G   1 1.00       0.000000000000
      0.6356099525D+02  0.1000000000D+01
 G   1 1.00       0.000000000000
      0.3245972208D+02  0.1000000000D+01
 G   1 1.00       0.000000000000
      0.1657673158D+02  0.1000000000D+01
 G   1 1.00       0.000000000000
      0.8465507783D+01  0.1000000000D+01
 G   1 1.00       0.000000000000
      0.4323217860D+01  0.1000000000D+01
 G   1 1.00       0.000000000000
      0.2207807629D+01  0.1000000000D+01
 G   1 1.00       0.000000000000
      0.1127496852D+01  0.1000000000D+01
 G   1 1.00       0.000000000000
      0.5757970639D+00  0.1000000000D+01
 ****
      2 0
 S   1 1.00       0.000000000000
      0.2019953588D+06  0.1000000000D+01
 S   1 1.00       0.000000000000
      0.1031562389D+06  0.1000000000D+01
 S   1 1.00       0.000000000000
      0.5268046591D+05  0.1000000000D+01
 S   1 1.00       0.000000000000
      0.2690318607D+05  0.1000000000D+01
 S   1 1.00       0.000000000000
      0.1373908542D+05  0.1000000000D+01
 S   1 1.00       0.000000000000
      0.7016361094D+04  0.1000000000D+01
 S   1 1.00       0.000000000000
      0.3583158668D+04  0.1000000000D+01
 S   1 1.00       0.000000000000
      0.1829869625D+04  0.1000000000D+01
 S   1 1.00       0.000000000000
      0.9344891347D+03  0.1000000000D+01
 S   1 1.00       0.000000000000
      0.4772306896D+03  0.1000000000D+01
 S   1 1.00       0.000000000000
      0.2437151195D+03  0.1000000000D+01
 S   1 1.00       0.000000000000
      0.1244619442D+03  0.1000000000D+01
 S   1 1.00       0.000000000000
      0.6356099525D+02  0.1000000000D+01
 S   1 1.00       0.000000000000
      0.3245972208D+02  0.1000000000D+01
 S   1 1.00       0.000000000000
      0.1657673158D+02  0.1000000000D+01
 S   1 1.00       0.000000000000
      0.8465507783D+01  0.1000000000D+01
 S   1 1.00       0.000000000000
      0.4323217860D+01  0.1000000000D+01
 S   1 1.00       0.000000000000
      0.2207807629D+01  0.1000000000D+01
 S   1 1.00       0.000000000000
      0.1127496852D+01  0.1000000000D+01
 S   1 1.00       0.000000000000
      0.5757970639D+00  0.1000000000D+01
 S   1 1.00       0.000000000000
      0.2940516050D+00  0.1000000000D+01
 S   1 1.00       0.000000000000
      0.1501680918D+00  0.1000000000D+01
 S   1 1.00       0.000000000000
      0.7668876969D-01  0.1000000000D+01
 S   1 1.00       0.000000000000
      0.3916389510D-01  0.1000000000D+01
 S   1 1.00       0.000000000000
      0.2000046011D-01  0.1000000000D+01
 P   1 1.00       0.000000000000
      0.2019953588D+06  0.1000000000D+01
 P   1 1.00       0.000000000000
      0.1031562389D+06  0.1000000000D+01
 P   1 1.00       0.000000000000
      0.5268046591D+05  0.1000000000D+01
 P   1 1.00       0.000000000000
      0.2690318607D+05  0.1000000000D+01
 P   1 1.00       0.000000000000
      0.1373908542D+05  0.1000000000D+01
 P   1 1.00       0.000000000000
      0.7016361094D+04  0.1000000000D+01
 P   1 1.00       0.000000000000
      0.3583158668D+04  0.1000000000D+01
 P   1 1.00       0.000000000000
      0.1829869625D+04  0.1000000000D+01
 P   1 1.00       0.000000000000
      0.9344891347D+03  0.1000000000D+01
 P   1 1.00       0.000000000000
      0.4772306896D+03  0.1000000000D+01
 P   1 1.00       0.000000000000
      0.2437151195D+03  0.1000000000D+01
 P   1 1.00       0.000000000000
      0.1244619442D+03  0.1000000000D+01
 P   1 1.00       0.000000000000
      0.6356099525D+02  0.1000000000D+01
 P   1 1.00       0.000000000000
      0.3245972208D+02  0.1000000000D+01
 P   1 1.00       0.000000000000
      0.1657673158D+02  0.1000000000D+01
 P   1 1.00       0.000000000000
      0.8465507783D+01  0.1000000000D+01
 P   1 1.00       0.000000000000
      0.4323217860D+01  0.1000000000D+01
 P   1 1.00       0.000000000000
      0.2207807629D+01  0.1000000000D+01
 P   1 1.00       0.000000000000
      0.1127496852D+01  0.1000000000D+01
 P   1 1.00       0.000000000000
      0.5757970639D+00  0.1000000000D+01
 P   1 1.00       0.000000000000
      0.2940516050D+00  0.1000000000D+01
 P   1 1.00       0.000000000000
      0.1501680918D+00  0.1000000000D+01
 P   1 1.00       0.000000000000
      0.7668876969D-01  0.1000000000D+01
 P   1 1.00       0.000000000000
      0.3916389510D-01  0.1000000000D+01
 P   1 1.00       0.000000000000
      0.2000046011D-01  0.1000000000D+01
 D   1 1.00       0.000000000000
      0.2437151195D+03  0.1000000000D+01
 D   1 1.00       0.000000000000
      0.1244619442D+03  0.1000000000D+01
 D   1 1.00       0.000000000000
      0.6356099525D+02  0.1000000000D+01
 D   1 1.00       0.000000000000
      0.3245972208D+02  0.1000000000D+01
 D   1 1.00       0.000000000000
      0.1657673158D+02  0.1000000000D+01
 D   1 1.00       0.000000000000
      0.8465507783D+01  0.1000000000D+01
 D   1 1.00       0.000000000000
      0.4323217860D+01  0.1000000000D+01
 D   1 1.00       0.000000000000
      0.2207807629D+01  0.1000000000D+01
 D   1 1.00       0.000000000000
      0.1127496852D+01  0.1000000000D+01
 D   1 1.00       0.000000000000
      0.5757970639D+00  0.1000000000D+01
 D   1 1.00       0.000000000000
      0.2940516050D+00  0.1000000000D+01
 D   1 1.00       0.000000000000
      0.1501680918D+00  0.1000000000D+01
 D   1 1.00       0.000000000000
      0.7668876969D-01  0.1000000000D+01
 D   1 1.00       0.000000000000
      0.3916389510D-01  0.1000000000D+01
 D   1 1.00       0.000000000000
      0.2000046011D-01  0.1000000000D+01
 ****

 There are   351 symmetry adapted cartesian basis functions of A1  symmetry.
 There are    91 symmetry adapted cartesian basis functions of A2  symmetry.
 There are   184 symmetry adapted cartesian basis functions of B1  symmetry.
 There are   184 symmetry adapted cartesian basis functions of B2  symmetry.
 There are   260 symmetry adapted basis functions of A1  symmetry.
 There are    79 symmetry adapted basis functions of A2  symmetry.
 There are   154 symmetry adapted basis functions of B1  symmetry.
 There are   154 symmetry adapted basis functions of B2  symmetry.
   647 basis functions,   810 primitive gaussians,   810 cartesian basis functions
    41 alpha electrons       41 beta electrons
       nuclear repulsion energy        55.0778526609 Hartrees.
 IExCor=    0 DFT=F Ex=HF Corr=None ExCW=0 ScaHFX=  1.000000
 ScaDFX=  1.000000  1.000000  1.000000  1.000000 ScalE2=  1.000000  1.000000
 IRadAn= 450590 IRanWt=     -1 IRanGd=            0 ICorTp=0 IEmpDi=  4
 NAtoms=    2 NActive=    2 NUniq=    2 SFac= 1.00D+00 NAtFMM=   60 NAOKFM=F Big=F
 Integral buffers will be    131072 words long.
 Raffenetti 2 integral format.
 Two-electron integral symmetry is turned on.
 Leave Link  301 at Sat Feb  3 16:05:46 2018, MaxMem=  8589934592 cpu:               0.8 elap:               0.1
 (Enter /appl/chem/G16RevA.03/g16/l302.exe)
 NPDir=0 NMtPBC=     1 NCelOv=     1 NCel=       1 NClECP=     1 NCelD=      1
         NCelK=      1 NCelE2=     1 NClLst=     1 CellRange=     0.0.
 One-electron integrals computed using PRISM.
 One-electron integral symmetry used in STVInt
 NBasis=   647 RedAO= T EigKep=  4.48D-05  NBF=   260    79   154   154
 NBsUse=   647 1.00D-06 EigRej= -1.00D+00 NBFU=   260    79   154   154
 Leave Link  302 at Sat Feb  3 16:05:47 2018, MaxMem=  8589934592 cpu:               7.0 elap:               0.6
 (Enter /appl/chem/G16RevA.03/g16/l303.exe)
 DipDrv:  MaxL=1.
 Leave Link  303 at Sat Feb  3 16:05:47 2018, MaxMem=  8589934592 cpu:               1.4 elap:               0.1
 (Enter /appl/chem/G16RevA.03/g16/l401.exe)
 ExpMin= 2.00D-02 ExpMax= 4.37D+07 ExpMxC= 4.37D+07 IAcc=4 IRadAn=    450590 AccDes= 0.00D+00
 Harris functional with IExCor=  205 and IRadAn=  450590 diagonalized for initial guess.
 HarFok:  IExCor=  205 AccDes= 0.00D+00 IRadAn=    450590 IDoV= 1 UseB2=F ITyADJ=14
 ICtDFT=  3500011 ScaDFX=  1.000000  1.000000  1.000000  1.000000
 FoFCou: FMM=F IPFlag=           0 FMFlag=      100000 FMFlg1=           0
         NFxFlg=           0 DoJE=T BraDBF=F KetDBF=T FulRan=T
         wScrn=  0.000000 ICntrl=       500 IOpCl=  0 I1Cent=   200000004 NGrid=           0
         NMat0=    1 NMatS0=      1 NMatT0=    0 NMatD0=    1 NMtDS0=    0 NMtDT0=    0
 Petite list used in FoFCou.
 Harris En= -17881.9749688582    
 JPrj=0 DoOrth=F DoCkMO=F.
 Initial guess orbital symmetries:
       Occupied  (SG) (SG) (SG) (PI) (PI) (SG) (SG) (PI) (PI) (SG)
                 (PI) (PI) (DLTA) (DLTA) (SG) (SG) (PI) (PI) (SG)
                 (PI) (PI) (DLTA) (DLTA) (SG) (SG) (PI) (PI) (DLTA)
                 (DLTA) (PHI) (PHI) (SG) (SG) (PI) (PI) (SG) (PI)
                 (PI) (DLTA) (DLTA) (SG)
       Virtual   (SG) (PI) (PI) (SG) (PI) (PI) (SG) (SG) (DLTA)
                 (DLTA) (PI) (PI) (SG) (PI) (PI) (SG) (PI) (PI)
                 (DLTA) (DLTA) (SG) (SG) (PI) (PI) (SG) (SG) (PI)
                 (PI) (SG) (DLTA) (DLTA) (PI) (PI) (SG) (DLTA)
                 (DLTA) (PI) (PI) (PHI) (PHI) (SG) (PI) (PI) (DLTA)
                 (DLTA) (SG) (PI) (PI) (SG) (SG) (PI) (PI) (SG)
                 (DLTA) (DLTA) (PI) (PI) (SG) (SG) (PI) (PI) (SG)
                 (PHI) (PHI) (PI) (PI) (DLTA) (DLTA) (SG) (DLTA)
                 (DLTA) (PI) (PI) (DLTA) (DLTA) (SG) (SG) (PI)
                 (PI) (SG) (PI) (PI) (SG) (SG) (PI) (PI) (PHI)
                 (PHI) (?A) (?A) (DLTA) (DLTA) (SG) (PHI) (PHI)
                 (DLTA) (DLTA) (SG) (PI) (PI) (PI) (PI) (SG) (DLTA)
                 (DLTA) (PI) (PI) (SG) (SG) (DLTA) (DLTA) (PI)
                 (PI) (SG) (PI) (PI) (SG) (SG) (SG) (PI) (PI) (PHI)
                 (PHI) (DLTA) (DLTA) (PI) (PI) (SG) (PHI) (PHI)
                 (?A) (?A) (DLTA) (DLTA) (PI) (PI) (SG) (DLTA)
                 (DLTA) (PI) (PI) (SG) (SG) (DLTA) (DLTA) (PI)
                 (PI) (SG) (PI) (PI) (SG) (PI) (PI) (SG) (PHI)
                 (PHI) (DLTA) (DLTA) (PI) (PI) (PHI) (PHI) (?A)
                 (?A) (DLTA) (DLTA) (PI) (PI) (SG) (SG) (SG) (DLTA)
                 (DLTA) (PI) (PI) (SG) (SG) (PI) (PI) (PHI) (PHI)
                 (?A) (?A) (DLTA) (DLTA) (SG) (PI) (PI) (SG) (PHI)
                 (PHI) (DLTA) (DLTA) (PI) (PI) (SG) (DLTA) (DLTA)
                 (PI) (PI) (SG) (DLTA) (DLTA) (PI) (PI) (SG) (PI)
                 (PI) (SG) (SG) (SG) (PHI) (PHI) (?A) (?A) (DLTA)
                 (DLTA) (PI) (PI) (SG) (PI) (PI) (SG) (DLTA) (DLTA)
                 (PI) (PI) (SG) (PHI) (PHI) (DLTA) (DLTA) (PI)
                 (PI) (SG) (DLTA) (DLTA) (PI) (PI) (SG) (SG) (PI)
                 (PI) (SG) (PHI) (PHI) (?A) (?A) (DLTA) (DLTA)
                 (PI) (PI) (SG) (PI) (PI) (SG) (SG) (DLTA) (DLTA)
                 (PI) (PI) (SG) (PHI) (PHI) (DLTA) (DLTA) (PI)
                 (PI) (SG) (SG) (DLTA) (DLTA) (PI) (PI) (SG) (PHI)
                 (PHI) (?A) (?A) (DLTA) (DLTA) (PI) (PI) (SG) (PI)
                 (PI) (SG) (DLTA) (DLTA) (PI) (PI) (SG) (PI) (PI)
                 (SG) (PHI) (PHI) (DLTA) (DLTA) (PI) (PI) (SG)
                 (SG) (SG) (PI) (PI) (SG) (PHI) (PHI) (?A) (?A)
                 (DLTA) (DLTA) (PI) (PI) (SG) (DLTA) (DLTA) (PI)
                 (PI) (SG) (DLTA) (DLTA) (PI) (PI) (SG) (PHI) (PHI)
                 (DLTA) (DLTA) (PI) (PI) (SG) (SG) (PI) (PI) (SG)
                 (PI) (PI) (SG) (PHI) (PHI) (?A) (?A) (DLTA) (DLTA)
                 (PI) (PI) (SG) (DLTA) (DLTA) (PI) (PI) (SG) (SG)
                 (DLTA) (DLTA) (PI) (PI) (SG) (SG) (PHI) (PHI)
                 (DLTA) (DLTA) (PI) (PI) (SG) (PI) (PI) (SG) (PI)
                 (PI) (SG) (PHI) (PHI) (?A) (?A) (DLTA) (DLTA)
                 (PI) (PI) (SG) (DLTA) (DLTA) (PI) (PI) (SG) (DLTA)
                 (DLTA) (PI) (PI) (SG) (SG) (SG) (PHI) (PHI) (DLTA)
                 (DLTA) (PI) (PI) (SG) (PI) (PI) (SG) (PHI) (PHI)
                 (?A) (?A) (DLTA) (DLTA) (PI) (PI) (SG) (PI) (PI)
                 (SG) (SG) (DLTA) (DLTA) (PI) (PI) (SG) (PI) (PI)
                 (SG) (SG) (PHI) (PHI) (DLTA) (DLTA) (PI) (PI)
                 (SG) (PHI) (PHI) (?A) (?A) (DLTA) (DLTA) (PI)
                 (PI) (SG) (PI) (PI) (SG) (SG) (DLTA) (DLTA) (PI)
                 (PI) (SG) (PI) (PI) (SG) (PHI) (PHI) (DLTA) (DLTA)
                 (PI) (PI) (SG) (SG) (PI) (PI) (SG) (SG) (DLTA)
                 (DLTA) (PI) (PI) (SG) (PI) (PI) (SG) (PHI) (PHI)
                 (DLTA) (DLTA) (PI) (PI) (SG) (SG) (PI) (PI) (SG)
                 (SG) (PI) (PI) (SG) (DLTA) (DLTA) (PI) (PI) (SG)
                 (PHI) (PHI) (DLTA) (DLTA) (PI) (PI) (SG) (SG)
                 (SG) (PI) (PI) (SG) (PI) (PI) (SG) (DLTA) (DLTA)
                 (PI) (PI) (SG) (PHI) (PHI) (DLTA) (DLTA) (PI)
                 (PI) (SG) (SG) (SG) (PI) (PI) (SG) (PI) (PI) (SG)
                 (DLTA) (DLTA) (PI) (PI) (SG) (SG) (SG) (PI) (PI)
                 (SG) (PI) (PI) (SG) (DLTA) (DLTA) (PI) (PI) (SG)
                 (SG) (SG) (PI) (PI) (SG) (PI) (PI) (SG) (DLTA)
                 (DLTA) (PI) (PI) (SG) (SG) (PI) (PI) (SG) (SG)
                 (PI) (PI) (SG) (DLTA) (DLTA) (PI) (PI) (SG) (SG)
                 (PI) (PI) (SG) (SG) (PI) (PI) (SG) (SG) (PI) (PI)
                 (SG) (SG) (PI) (PI) (SG) (SG) (PI) (PI) (SG) (SG)
                 (PI) (PI) (SG) (SG) (PI) (PI) (SG) (SG) (PI) (PI)
                 (SG)
 The electronic state of the initial guess is 1-SG.
 Leave Link  401 at Sat Feb  3 16:05:48 2018, MaxMem=  8589934592 cpu:              13.6 elap:               1.2
 (Enter /appl/chem/G16RevA.03/g16/l502.exe)
 Integral symmetry usage will be decided dynamically.
 Restricted open shell SCF:
 Using DIIS extrapolation, IDIIS=  1040.
 NGot=  8589934592 LenX=  8588601836 LenY=  8587944926
 Requested convergence on RMS density matrix=1.00D-08 within 128 cycles.
 Requested convergence on MAX density matrix=1.00D-06.
 Requested convergence on             energy=1.00D-06.
 No special actions if energy rises.
 Fock matrices will be formed incrementally for  20 cycles.

 Cycle   1  Pass 0  IDiag  1:
 FoFJK:  IHMeth= 1 ICntrl=       0 DoSepK=F KAlg= 0 I1Cent=           0 FoldK=F
 IRaf= 770000000 NMat=       1 IRICut=       1 DoRegI=T DoRafI=F ISym2E= 1 IDoP0=0 IntGTp=1.
 FoFCou: FMM=F IPFlag=           0 FMFlag=      100000 FMFlg1=           0
         NFxFlg=           0 DoJE=F BraDBF=F KetDBF=F FulRan=T
         wScrn=  0.000000 ICntrl=         0 IOpCl=  1 I1Cent=           0 NGrid=           0
         NMat0=    1 NMatS0=      1 NMatT0=    0 NMatD0=    1 NMtDS0=    0 NMtDT0=    0
 Petite list used in FoFCou.
 E= -17869.6532363232    
 DIIS: error= 1.32D+00 at cycle   1 NSaved=   1.
 NSaved= 1 IEnMin= 1 EnMin= -17869.6532363232     IErMin= 1 ErrMin= 1.32D+00
 ErrMax= 1.32D+00  0.00D+00 EMaxC= 1.00D-01 BMatC= 3.89D+02 BMatP= 3.89D+02
 IDIUse=3 WtCom= 0.00D+00 WtEn= 1.00D+00
 Coeff-Com:  0.100D+01
 Coeff-En:   0.100D+01
 Coeff:      0.100D+01
 Gap=     0.338 Goal=   None    Shift=    0.000
 GapD=    0.338 DampG=1.000 DampE=0.125 DampFc=0.1250 IDamp=-1.
 Damping current iteration by 1.25D-01
 RMSDP=2.28D-03 MaxDP=2.96D-01              OVMax= 2.89D-01

 Cycle   2  Pass 0  IDiag  1:
 RMSU=  2.71D-04    CP:  1.01D+00
 E= -17870.2705192878     Delta-E=       -0.617282964646 Rises=F Damp=T
 DIIS: error= 1.15D+00 at cycle   2 NSaved=   2.
 NSaved= 2 IEnMin= 2 EnMin= -17870.2705192878     IErMin= 2 ErrMin= 1.15D+00
 ErrMax= 1.15D+00  0.00D+00 EMaxC= 1.00D-01 BMatC= 2.85D+02 BMatP= 3.89D+02
 IDIUse=3 WtCom= 0.00D+00 WtEn= 1.00D+00
 Coeff-Com: -0.562D+01 0.662D+01
 Coeff-En:   0.000D+00 0.100D+01
 Coeff:      0.000D+00 0.100D+01
 Gap=     0.268 Goal=   None    Shift=    0.000
 RMSDP=1.70D-03 MaxDP=2.28D-01 DE=-6.17D-01 OVMax= 4.55D-02

 Cycle   3  Pass 0  IDiag  1:
 RMSU=  1.09D-03    CP:  1.06D+00  3.00D+00
 E= -17871.5973945655     Delta-E=       -1.326875277700 Rises=F Damp=F
 DIIS: error= 2.06D-01 at cycle   3 NSaved=   3.
 NSaved= 3 IEnMin= 3 EnMin= -17871.5973945655     IErMin= 3 ErrMin= 2.06D-01
 ErrMax= 2.06D-01  0.00D+00 EMaxC= 1.00D-01 BMatC= 1.90D+01 BMatP= 2.85D+02
 IDIUse=3 WtCom= 0.00D+00 WtEn= 1.00D+00
 Large coefficients: NSaved=  3 BigCof=   14.69 CofMax=   10.00 Det=-2.43D-02
 Inversion failed.  Reducing to  2 matrices.
 Coeff-Com:  0.152D+00 0.848D+00
 Coeff-En:   0.242D+00 0.758D+00
 Coeff:      0.242D+00 0.758D+00
 Gap=     0.174 Goal=   None    Shift=    0.000
 RMSDP=1.48D-03 MaxDP=1.94D-01 DE=-1.33D+00 OVMax= 2.10D-01

 Cycle   4  Pass 0  IDiag  1:
 RMSU=  6.06D-04    CP:  9.92D-01  2.43D+00  6.71D-02
 E= -17872.4863769132     Delta-E=       -0.888982347700 Rises=F Damp=F
 DIIS: error= 9.76D-02 at cycle   4 NSaved=   3.
 NSaved= 3 IEnMin= 3 EnMin= -17872.4863769132     IErMin= 3 ErrMin= 9.76D-02
 ErrMax= 9.76D-02  0.00D+00 EMaxC= 1.00D-01 BMatC= 3.52D+00 BMatP= 1.90D+01
 IDIUse=3 WtCom= 2.42D-02 WtEn= 9.76D-01
 Coeff-Com:  0.175D-01 0.313D+00 0.669D+00
 Coeff-En:   0.000D+00 0.189D+00 0.811D+00
 Coeff:      0.425D-03 0.192D+00 0.808D+00
 Gap=     0.228 Goal=   None    Shift=    0.000
 RMSDP=7.58D-04 MaxDP=8.69D-02 DE=-8.89D-01 OVMax= 1.13D-01

 Cycle   5  Pass 0  IDiag  1:
 RMSU=  1.84D-04    CP:  1.02D+00  3.00D+00  5.08D-01  6.65D-01
 E= -17872.7619004630     Delta-E=       -0.275523549793 Rises=F Damp=F
 DIIS: error= 4.21D-02 at cycle   5 NSaved=   4.
 NSaved= 4 IEnMin= 4 EnMin= -17872.7619004630     IErMin= 4 ErrMin= 4.21D-02
 ErrMax= 4.21D-02  0.00D+00 EMaxC= 1.00D-01 BMatC= 6.84D-01 BMatP= 3.52D+00
 IDIUse=3 WtCom= 5.79D-01 WtEn= 4.21D-01
 Coeff-Com: -0.302D-03-0.156D-01 0.287D+00 0.729D+00
 Coeff-En:   0.000D+00 0.000D+00 0.132D+00 0.868D+00
 Coeff:     -0.175D-03-0.902D-02 0.222D+00 0.787D+00
 Gap=     0.202 Goal=   None    Shift=    0.000
 RMSDP=3.43D-04 MaxDP=5.36D-02 DE=-2.76D-01 OVMax= 6.43D-02

 Cycle   6  Pass 0  IDiag  1:
 RMSU=  5.73D-05    CP:  1.01D+00  3.00D+00  2.89D-01  9.49D-01  1.01D+00
 E= -17872.8312581991     Delta-E=       -0.069357736138 Rises=F Damp=F
 DIIS: error= 1.09D-02 at cycle   6 NSaved=   5.
 NSaved= 5 IEnMin= 5 EnMin= -17872.8312581991     IErMin= 5 ErrMin= 1.09D-02
 ErrMax= 1.09D-02  0.00D+00 EMaxC= 1.00D-01 BMatC= 4.67D-02 BMatP= 6.84D-01
 IDIUse=3 WtCom= 8.91D-01 WtEn= 1.09D-01
 Coeff-Com: -0.348D-03 0.298D-03-0.324D-01 0.152D+00 0.880D+00
 Coeff-En:   0.000D+00 0.000D+00 0.000D+00 0.000D+00 0.100D+01
 Coeff:     -0.310D-03 0.265D-03-0.289D-01 0.136D+00 0.893D+00
 Gap=     0.210 Goal=   None    Shift=    0.000
 RMSDP=7.88D-05 MaxDP=7.48D-03 DE=-6.94D-02 OVMax= 1.40D-02

 Cycle   7  Pass 0  IDiag  1:
 RMSU=  1.96D-05    CP:  1.01D+00  3.00D+00  3.48D-01  9.33D-01  1.18D+00
                    CP:  1.13D+00
 E= -17872.8367712606     Delta-E=       -0.005513061424 Rises=F Damp=F
 DIIS: error= 1.41D-03 at cycle   7 NSaved=   6.
 NSaved= 6 IEnMin= 6 EnMin= -17872.8367712606     IErMin= 6 ErrMin= 1.41D-03
 ErrMax= 1.41D-03  0.00D+00 EMaxC= 1.00D-01 BMatC= 8.76D-04 BMatP= 4.67D-02
 IDIUse=3 WtCom= 9.86D-01 WtEn= 1.41D-02
 Coeff-Com:  0.146D-04 0.107D-02-0.151D-01-0.407D-01 0.120D+00 0.934D+00
 Coeff-En:   0.000D+00 0.000D+00 0.000D+00 0.000D+00 0.000D+00 0.100D+01
 Coeff:      0.144D-04 0.105D-02-0.149D-01-0.401D-01 0.119D+00 0.935D+00
 Gap=     0.210 Goal=   None    Shift=    0.000
 RMSDP=2.53D-05 MaxDP=4.07D-03 DE=-5.51D-03 OVMax= 1.10D-02

 Cycle   8  Pass 0  IDiag  1:
 RMSU=  3.70D-06    CP:  1.01D+00  3.00D+00  3.42D-01  9.57D-01  1.23D+00
                    CP:  1.33D+00  1.42D+00
 E= -17872.8369893873     Delta-E=       -0.000218126741 Rises=F Damp=F
 DIIS: error= 1.29D-04 at cycle   8 NSaved=   7.
 NSaved= 7 IEnMin= 7 EnMin= -17872.8369893873     IErMin= 7 ErrMin= 1.29D-04
 ErrMax= 1.29D-04  0.00D+00 EMaxC= 1.00D-01 BMatC= 5.39D-06 BMatP= 8.76D-04
 IDIUse=3 WtCom= 9.99D-01 WtEn= 1.29D-03
 Coeff-Com:  0.247D-04 0.991D-04 0.212D-03-0.183D-01-0.755D-01-0.370D-01
 Coeff-Com:  0.113D+01
 Coeff-En:   0.000D+00 0.000D+00 0.000D+00 0.000D+00 0.000D+00 0.000D+00
 Coeff-En:   0.100D+01
 Coeff:      0.247D-04 0.989D-04 0.212D-03-0.182D-01-0.754D-01-0.369D-01
 Coeff:      0.113D+01
 Gap=     0.211 Goal=   None    Shift=    0.000
 RMSDP=1.22D-05 MaxDP=2.33D-03 DE=-2.18D-04 OVMax= 7.07D-03

 Cycle   9  Pass 0  IDiag  1:
 RMSU=  2.01D-06    CP:  1.01D+00  3.00D+00  3.43D-01  9.66D-01  1.26D+00
                    CP:  1.42D+00  1.72D+00  1.85D+00
 E= -17872.8370243904     Delta-E=       -0.000035003079 Rises=F Damp=F
 DIIS: error= 1.00D-04 at cycle   9 NSaved=   8.
 NSaved= 8 IEnMin= 8 EnMin= -17872.8370243904     IErMin= 8 ErrMin= 1.00D-04
 ErrMax= 1.00D-04  0.00D+00 EMaxC= 1.00D-01 BMatC= 2.25D-06 BMatP= 5.39D-06
 IDIUse=3 WtCom= 9.99D-01 WtEn= 1.00D-03
 Coeff-Com: -0.256D-05-0.287D-03 0.303D-02 0.562D-02-0.487D-01-0.284D+00
 Coeff-Com:  0.414D+00 0.910D+00
 Coeff-En:   0.000D+00 0.000D+00 0.000D+00 0.000D+00 0.000D+00 0.000D+00
 Coeff-En:   0.000D+00 0.100D+01
 Coeff:     -0.256D-05-0.286D-03 0.302D-02 0.561D-02-0.487D-01-0.284D+00
 Coeff:      0.414D+00 0.910D+00
 Gap=     0.211 Goal=   None    Shift=    0.000
 RMSDP=5.27D-06 MaxDP=1.00D-03 DE=-3.50D-05 OVMax= 3.61D-03

 Initial convergence to 1.0D-05 achieved.  Increase integral accuracy.
 Cycle  10  Pass 1  IDiag  1:
 E= -17872.8370306370     Delta-E=       -0.000006246639 Rises=F Damp=F
 DIIS: error= 1.44D-05 at cycle   1 NSaved=   1.
 NSaved= 1 IEnMin= 1 EnMin= -17872.8370306370     IErMin= 1 ErrMin= 1.44D-05
 ErrMax= 1.44D-05  0.00D+00 EMaxC= 1.00D-01 BMatC= 8.98D-08 BMatP= 8.98D-08
 IDIUse=1 WtCom= 1.00D+00 WtEn= 0.00D+00
 Coeff-Com:  0.100D+01
 Coeff:      0.100D+01
 Gap=     0.211 Goal=   None    Shift=    0.000
 RMSDP=5.27D-06 MaxDP=1.00D-03 DE=-6.25D-06 OVMax= 5.35D-04

 Cycle  11  Pass 1  IDiag  1:
 RMSU=  1.24D-06    CP:  1.00D+00
 E= -17872.8370309643     Delta-E=       -0.000000327316 Rises=F Damp=F
 DIIS: error= 6.32D-06 at cycle   2 NSaved=   2.
 NSaved= 2 IEnMin= 2 EnMin= -17872.8370309643     IErMin= 2 ErrMin= 6.32D-06
 ErrMax= 6.32D-06  0.00D+00 EMaxC= 1.00D-01 BMatC= 1.66D-08 BMatP= 8.98D-08
 IDIUse=1 WtCom= 1.00D+00 WtEn= 0.00D+00
 Coeff-Com:  0.152D-02 0.998D+00
 Coeff:      0.152D-02 0.998D+00
 Gap=     0.211 Goal=   None    Shift=    0.000
 RMSDP=7.02D-07 MaxDP=8.88D-05 DE=-3.27D-07 OVMax= 3.05D-04

 Cycle  12  Pass 1  IDiag  1:
 RMSU=  2.28D-07    CP:  1.00D+00  1.53D+00
 E= -17872.8370310535     Delta-E=       -0.000000089192 Rises=F Damp=F
 DIIS: error= 6.86D-06 at cycle   3 NSaved=   3.
 NSaved= 3 IEnMin= 3 EnMin= -17872.8370310535     IErMin= 2 ErrMin= 6.32D-06
 ErrMax= 6.86D-06  0.00D+00 EMaxC= 1.00D-01 BMatC= 1.38D-08 BMatP= 1.66D-08
 IDIUse=1 WtCom= 1.00D+00 WtEn= 0.00D+00
 Coeff-Com: -0.317D+00 0.451D+00 0.867D+00
 Coeff:     -0.317D+00 0.451D+00 0.867D+00
 Gap=     0.211 Goal=   None    Shift=    0.000
 RMSDP=5.47D-07 MaxDP=7.94D-05 DE=-8.92D-08 OVMax= 2.26D-04

 Cycle  13  Pass 1  IDiag  1:
 RMSU=  9.35D-08    CP:  1.00D+00  1.94D+00  1.79D+00
 E= -17872.8370310877     Delta-E=       -0.000000034193 Rises=F Damp=F
 DIIS: error= 1.72D-06 at cycle   4 NSaved=   4.
 NSaved= 4 IEnMin= 4 EnMin= -17872.8370310877     IErMin= 4 ErrMin= 1.72D-06
 ErrMax= 1.72D-06  0.00D+00 EMaxC= 1.00D-01 BMatC= 1.71D-09 BMatP= 1.38D-08
 IDIUse=1 WtCom= 1.00D+00 WtEn= 0.00D+00
 Coeff-Com: -0.179D+00 0.119D+00 0.254D+00 0.806D+00
 Coeff:     -0.179D+00 0.119D+00 0.254D+00 0.806D+00
 Gap=     0.211 Goal=   None    Shift=    0.000
 RMSDP=2.21D-07 MaxDP=3.45D-05 DE=-3.42D-08 OVMax= 9.00D-05

 Cycle  14  Pass 1  IDiag  1:
 RMSU=  2.00D-08    CP:  1.00D+00  2.09D+00  2.25D+00  1.60D+00
 E= -17872.8370310922     Delta-E=       -0.000000004424 Rises=F Damp=F
 DIIS: error= 5.26D-07 at cycle   5 NSaved=   5.
 NSaved= 5 IEnMin= 5 EnMin= -17872.8370310922     IErMin= 5 ErrMin= 5.26D-07
 ErrMax= 5.26D-07  0.00D+00 EMaxC= 1.00D-01 BMatC= 1.64D-10 BMatP= 1.71D-09
 IDIUse=1 WtCom= 1.00D+00 WtEn= 0.00D+00
 Coeff-Com:  0.791D-01-0.427D-01-0.231D+00-0.151D+00 0.135D+01
 Coeff:      0.791D-01-0.427D-01-0.231D+00-0.151D+00 0.135D+01
 Gap=     0.211 Goal=   None    Shift=    0.000
 RMSDP=9.01D-08 MaxDP=2.17D-05 DE=-4.42D-09 OVMax= 3.20D-05

 Cycle  15  Pass 1  IDiag  1:
 RMSU=  1.53D-08    CP:  1.00D+00  2.11D+00  2.53D+00  2.10D+00  2.24D+00
 E= -17872.8370310927     Delta-E=       -0.000000000546 Rises=F Damp=F
 DIIS: error= 1.73D-07 at cycle   6 NSaved=   6.
 NSaved= 6 IEnMin= 6 EnMin= -17872.8370310927     IErMin= 6 ErrMin= 1.73D-07
 ErrMax= 1.73D-07  0.00D+00 EMaxC= 1.00D-01 BMatC= 1.79D-11 BMatP= 1.64D-10
 IDIUse=1 WtCom= 1.00D+00 WtEn= 0.00D+00
 Coeff-Com:  0.337D-01-0.239D-01-0.774D-01-0.139D+00 0.378D+00 0.828D+00
 Coeff:      0.337D-01-0.239D-01-0.774D-01-0.139D+00 0.378D+00 0.828D+00
 Gap=     0.211 Goal=   None    Shift=    0.000
 RMSDP=1.52D-08 MaxDP=4.43D-06 DE=-5.46D-10 OVMax= 8.17D-06

 Cycle  16  Pass 1  IDiag  1:
 RMSU=  3.15D-09    CP:  1.00D+00  2.12D+00  2.57D+00  2.15D+00  2.64D+00
                    CP:  1.43D+00
 E= -17872.8370310926     Delta-E=        0.000000000102 Rises=F Damp=F
 DIIS: error= 4.75D-08 at cycle   7 NSaved=   7.
 NSaved= 7 IEnMin= 6 EnMin= -17872.8370310927     IErMin= 7 ErrMin= 4.75D-08
 ErrMax= 4.75D-08  0.00D+00 EMaxC= 1.00D-01 BMatC= 1.43D-12 BMatP= 1.79D-11
 IDIUse=1 WtCom= 1.00D+00 WtEn= 0.00D+00
 Coeff-Com:  0.210D-02-0.113D-02-0.278D-02-0.642D-03-0.460D-01 0.147D+00
 Coeff-Com:  0.902D+00
 Coeff:      0.210D-02-0.113D-02-0.278D-02-0.642D-03-0.460D-01 0.147D+00
 Coeff:      0.902D+00
 Gap=     0.211 Goal=   None    Shift=    0.000
 RMSDP=1.12D-08 MaxDP=2.02D-06 DE= 1.02D-10 OVMax= 1.59D-06

 Cycle  17  Pass 1  IDiag  1:
 RMSU=  2.73D-09    CP:  1.00D+00  2.11D+00  2.55D+00  2.14D+00  2.77D+00
                    CP:  1.70D+00  1.48D+00
 E= -17872.8370310926     Delta-E=       -0.000000000015 Rises=F Damp=F
 DIIS: error= 7.69D-09 at cycle   8 NSaved=   8.
 NSaved= 8 IEnMin= 6 EnMin= -17872.8370310927     IErMin= 8 ErrMin= 7.69D-09
 ErrMax= 7.69D-09  0.00D+00 EMaxC= 1.00D-01 BMatC= 5.43D-14 BMatP= 1.43D-12
 IDIUse=1 WtCom= 1.00D+00 WtEn= 0.00D+00
 Coeff-Com: -0.193D-02 0.178D-02 0.409D-02 0.533D-02-0.142D-01-0.554D-01
 Coeff-Com: -0.106D-01 0.107D+01
 Coeff:     -0.193D-02 0.178D-02 0.409D-02 0.533D-02-0.142D-01-0.554D-01
 Coeff:     -0.106D-01 0.107D+01
 Gap=     0.211 Goal=   None    Shift=    0.000
 RMSDP=5.80D-09 MaxDP=1.10D-06 DE=-1.46D-11 OVMax= 5.38D-07

 Cycle  18  Pass 1  IDiag  1:
 RMSU=  1.96D-09    CP:  1.00D+00  2.11D+00  2.54D+00  2.12D+00  2.83D+00
                    CP:  1.78D+00  1.80D+00  5.37D-01
 E= -17872.8370310929     Delta-E=       -0.000000000276 Rises=F Damp=F
 DIIS: error= 3.55D-09 at cycle   9 NSaved=   9.
 NSaved= 9 IEnMin= 9 EnMin= -17872.8370310929     IErMin= 9 ErrMin= 3.55D-09
 ErrMax= 3.55D-09  0.00D+00 EMaxC= 1.00D-01 BMatC= 1.08D-14 BMatP= 5.43D-14
 IDIUse=1 WtCom= 1.00D+00 WtEn= 0.00D+00
 Coeff-Com: -0.557D-03 0.518D-03 0.118D-02 0.141D-02-0.368D-02-0.163D-01
 Coeff-Com: -0.152D-01 0.233D+00 0.800D+00
 Coeff:     -0.557D-03 0.518D-03 0.118D-02 0.141D-02-0.368D-02-0.163D-01
 Coeff:     -0.152D-01 0.233D+00 0.800D+00
 Gap=     0.211 Goal=   None    Shift=    0.000
 RMSDP=1.07D-09 MaxDP=2.09D-07 DE=-2.76D-10 OVMax= 1.14D-07

 SCF Done:  E(ROHF) =  -17872.8370311     A.U. after   18 cycles
            NFock= 18  Conv=0.11D-08     -V/T= 2.0000
 <Sx>= 0.0000 <Sy>= 0.0000 <Sz>= 0.0000 <S**2>=-0.0000 S=-0.0000
 <L.S>= 0.000000000000E+00
 KE= 1.787295685552D+04 PE=-4.269645559207D+04 EE= 6.895583852798D+03
 Annihilation of the first spin contaminant:
 S**2 before annihilation    -0.0000,   after     0.0000
 Leave Link  502 at Sat Feb  3 16:19:57 2018, MaxMem=  8589934592 cpu:           10179.0 elap:             849.3
 (Enter /appl/chem/G16RevA.03/g16/l601.exe)
 Copying SCF densities to generalized density rwf, IOpCl= 0 IROHF=1.

 **********************************************************************

            Population analysis using the SCF density.

 **********************************************************************

 Orbital symmetries:
       Occupied  (SG) (SG) (SG) (PI) (PI) (SG) (SG) (PI) (PI) (SG)
                 (PI) (PI) (DLTA) (DLTA) (SG) (SG) (PI) (PI) (SG)
                 (PI) (PI) (DLTA) (DLTA) (SG) (PI) (PI) (DLTA)
                 (DLTA) (PHI) (PHI) (SG) (SG) (PI) (PI) (SG) (SG)
                 (PI) (PI) (DLTA) (DLTA) (SG)
       Virtual   (SG) (PI) (PI) (SG) (SG) (PI) (PI) (DLTA) (DLTA)
                 (SG) (PI) (PI) (SG) (PI) (PI) (SG) (PI) (PI) (DLTA)
                 (DLTA) (SG) (SG) (PI) (PI) (SG) (SG) (PI) (PI)
                 (SG) (DLTA) (DLTA) (PI) (PI) (SG) (DLTA) (DLTA)
                 (SG) (PI) (PI) (PHI) (PHI) (PI) (PI) (DLTA) (DLTA)
                 (SG) (SG) (PI) (PI) (SG) (SG) (DLTA) (DLTA) (PI)
                 (PI) (PI) (PI) (SG) (SG) (SG) (PI) (PI) (PI) (PI)
                 (PHI) (PHI) (DLTA) (DLTA) (SG) (DLTA) (DLTA) (PI)
                 (PI) (SG) (DLTA) (DLTA) (SG) (PI) (PI) (SG) (PI)
                 (PI) (SG) (SG) (PI) (PI) (SG) (PHI) (PHI) (PHI)
                 (PHI) (?A) (?A) (DLTA) (DLTA) (DLTA) (DLTA) (SG)
                 (PI) (PI) (PI) (PI) (SG) (DLTA) (DLTA) (PI) (PI)
                 (SG) (SG) (DLTA) (DLTA) (PI) (PI) (SG) (PI) (PI)
                 (SG) (SG) (SG) (PI) (PI) (PHI) (PHI) (DLTA) (DLTA)
                 (PI) (PI) (SG) (PHI) (PHI) (?A) (?A) (DLTA) (DLTA)
                 (PI) (PI) (SG) (DLTA) (DLTA) (PI) (PI) (SG) (SG)
                 (DLTA) (DLTA) (PI) (PI) (SG) (PI) (PI) (PI) (PI)
                 (SG) (SG) (PHI) (PHI) (DLTA) (DLTA) (PI) (PI)
                 (PHI) (PHI) (?A) (?A) (DLTA) (DLTA) (SG) (PI)
                 (PI) (SG) (SG) (DLTA) (DLTA) (PI) (PI) (SG) (SG)
                 (PI) (PI) (SG) (PHI) (PHI) (?A) (?A) (DLTA) (DLTA)
                 (PI) (PI) (SG) (PHI) (PHI) (DLTA) (DLTA) (PI)
                 (PI) (SG) (DLTA) (DLTA) (PI) (PI) (SG) (DLTA)
                 (DLTA) (PI) (PI) (SG) (PI) (PI) (SG) (SG) (SG)
                 (PHI) (PHI) (?A) (?A) (DLTA) (DLTA) (PI) (PI)
                 (SG) (PI) (PI) (SG) (DLTA) (DLTA) (PI) (PI) (SG)
                 (PHI) (PHI) (DLTA) (DLTA) (PI) (PI) (SG) (DLTA)
                 (DLTA) (PI) (PI) (SG) (SG) (PI) (PI) (SG) (PHI)
                 (PHI) (?A) (?A) (DLTA) (DLTA) (PI) (PI) (SG) (PI)
                 (PI) (SG) (SG) (DLTA) (DLTA) (PI) (PI) (SG) (PHI)
                 (PHI) (DLTA) (DLTA) (PI) (PI) (SG) (SG) (DLTA)
                 (DLTA) (PI) (PI) (SG) (PHI) (PHI) (?A) (?A) (DLTA)
                 (DLTA) (PI) (PI) (SG) (PI) (PI) (SG) (DLTA) (DLTA)
                 (PI) (PI) (SG) (PI) (PI) (SG) (PHI) (PHI) (DLTA)
                 (DLTA) (PI) (PI) (SG) (SG) (SG) (PI) (PI) (SG)
                 (PHI) (PHI) (?A) (?A) (DLTA) (DLTA) (PI) (PI)
                 (SG) (DLTA) (DLTA) (PI) (PI) (SG) (DLTA) (DLTA)
                 (PI) (PI) (SG) (PHI) (PHI) (DLTA) (DLTA) (PI)
                 (PI) (SG) (SG) (PI) (PI) (SG) (PI) (PI) (SG) (PHI)
                 (PHI) (?A) (?A) (DLTA) (DLTA) (PI) (PI) (SG) (DLTA)
                 (DLTA) (PI) (PI) (SG) (SG) (DLTA) (DLTA) (PI)
                 (PI) (SG) (SG) (PHI) (PHI) (DLTA) (DLTA) (PI)
                 (PI) (SG) (PI) (PI) (SG) (PI) (PI) (SG) (PHI)
                 (PHI) (?A) (?A) (DLTA) (DLTA) (PI) (PI) (SG) (DLTA)
                 (DLTA) (PI) (PI) (SG) (DLTA) (DLTA) (PI) (PI)
                 (SG) (SG) (SG) (PHI) (PHI) (DLTA) (DLTA) (PI)
                 (PI) (SG) (PI) (PI) (SG) (PHI) (PHI) (?A) (?A)
                 (DLTA) (DLTA) (PI) (PI) (SG) (PI) (PI) (SG) (SG)
                 (DLTA) (DLTA) (PI) (PI) (SG) (PI) (PI) (SG) (SG)
                 (PHI) (PHI) (DLTA) (DLTA) (PI) (PI) (SG) (PHI)
                 (PHI) (?A) (?A) (DLTA) (DLTA) (PI) (PI) (SG) (PI)
                 (PI) (SG) (SG) (DLTA) (DLTA) (PI) (PI) (SG) (PI)
                 (PI) (SG) (PHI) (PHI) (DLTA) (DLTA) (PI) (PI)
                 (SG) (SG) (PI) (PI) (SG) (SG) (DLTA) (DLTA) (PI)
                 (PI) (SG) (PI) (PI) (SG) (PHI) (PHI) (DLTA) (DLTA)
                 (PI) (PI) (SG) (SG) (PI) (PI) (SG) (SG) (PI) (PI)
                 (SG) (DLTA) (DLTA) (PI) (PI) (SG) (PHI) (PHI)
                 (DLTA) (DLTA) (PI) (PI) (SG) (SG) (SG) (PI) (PI)
                 (SG) (PI) (PI) (SG) (DLTA) (DLTA) (PI) (PI) (SG)
                 (PHI) (PHI) (DLTA) (DLTA) (PI) (PI) (SG) (SG)
                 (SG) (PI) (PI) (SG) (PI) (PI) (SG) (DLTA) (DLTA)
                 (PI) (PI) (SG) (SG) (SG) (PI) (PI) (SG) (PI) (PI)
                 (SG) (DLTA) (DLTA) (PI) (PI) (SG) (SG) (SG) (PI)
                 (PI) (SG) (PI) (PI) (SG) (DLTA) (DLTA) (PI) (PI)
                 (SG) (SG) (PI) (PI) (SG) (SG) (PI) (PI) (SG) (DLTA)
                 (DLTA) (PI) (PI) (SG) (SG) (PI) (PI) (SG) (SG)
                 (PI) (PI) (SG) (SG) (PI) (PI) (SG) (SG) (PI) (PI)
                 (SG) (SG) (PI) (PI) (SG) (SG) (PI) (PI) (SG) (SG)
                 (PI) (PI) (SG) (SG) (PI) (PI) (SG)
 The electronic state is 1-SG.
 Alpha  occ. eigenvalues -- **********-457.16733-438.89082-438.89062-438.89062
 Alpha  occ. eigenvalues -- -109.24553-100.60754-100.60688-100.60688 -84.70343
 Alpha  occ. eigenvalues --  -84.70335 -84.70335 -84.70310 -84.70310 -24.33858
 Alpha  occ. eigenvalues --  -20.55599 -20.55456 -20.55456 -13.64007 -13.63981
 Alpha  occ. eigenvalues --  -13.63981 -13.63912 -13.63912  -4.31323  -4.31306
 Alpha  occ. eigenvalues --   -4.31306  -4.31256  -4.31256  -4.31175  -4.31175
 Alpha  occ. eigenvalues --   -3.79321  -2.52041  -2.51491  -2.51491  -2.46637
 Alpha  occ. eigenvalues --   -0.51166  -0.50499  -0.50499  -0.49929  -0.49929
 Alpha  occ. eigenvalues --   -0.20647
 Alpha virt. eigenvalues --    0.00502   0.02413   0.02413   0.04074   0.04967
 Alpha virt. eigenvalues --    0.05040   0.05040   0.05623   0.05623   0.07030
 Alpha virt. eigenvalues --    0.08629   0.08629   0.10253   0.12139   0.12139
 Alpha virt. eigenvalues --    0.14008   0.14758   0.14758   0.15723   0.15723
 Alpha virt. eigenvalues --    0.16077   0.21741   0.23748   0.23748   0.25466
 Alpha virt. eigenvalues --    0.26039   0.28212   0.28212   0.33388   0.34606
 Alpha virt. eigenvalues --    0.34606   0.35570   0.35570   0.40160   0.47041
 Alpha virt. eigenvalues --    0.47041   0.51346   0.51556   0.51556   0.54195
 Alpha virt. eigenvalues --    0.54195   0.54737   0.54737   0.59356   0.59356
 Alpha virt. eigenvalues --    0.60945   0.63793   0.64546   0.64546   0.65290
 Alpha virt. eigenvalues --    0.70096   0.71224   0.71224   0.71628   0.71628
 Alpha virt. eigenvalues --    0.80939   0.80939   0.83077   1.06593   1.08896
 Alpha virt. eigenvalues --    1.09814   1.09814   1.24027   1.24027   1.24323
 Alpha virt. eigenvalues --    1.24323   1.26124   1.26124   1.28655   1.42338
 Alpha virt. eigenvalues --    1.42338   1.44507   1.44507   1.45432   1.45576
 Alpha virt. eigenvalues --    1.45576   1.51311   1.53123   1.53123   1.56276
 Alpha virt. eigenvalues --    1.65600   1.65600   1.70512   1.96340   2.22172
 Alpha virt. eigenvalues --    2.22172   2.33636   2.40187   2.40187   2.40474
 Alpha virt. eigenvalues --    2.40474   2.40962   2.40962   2.41179   2.41179
 Alpha virt. eigenvalues --    2.42535   2.42535   2.43383   2.45866   2.45866
 Alpha virt. eigenvalues --    2.58734   2.58734   2.67250   2.82729   2.82729
 Alpha virt. eigenvalues --    2.84010   2.84010   3.08084   3.16186   3.64883
 Alpha virt. eigenvalues --    3.64883   3.65325   3.65325   3.73197   3.79525
 Alpha virt. eigenvalues --    3.79525   4.04835   4.14255   4.48770   4.48984
 Alpha virt. eigenvalues --    4.48984   4.76083   4.76083   4.78167   4.78167
 Alpha virt. eigenvalues --    4.81705   4.81705   4.91810   5.23263   5.23263
 Alpha virt. eigenvalues --    5.23619   5.23619   5.24180   5.24180   5.32400
 Alpha virt. eigenvalues --    5.32400   5.56237   5.58449   5.58449   5.61207
 Alpha virt. eigenvalues --    5.61207   5.76690   6.60322   8.70563   8.70563
 Alpha virt. eigenvalues --    8.83168   8.83168   8.93727   9.01664   9.01664
 Alpha virt. eigenvalues --    9.02515   9.02515   9.04163   9.34830   9.71559
 Alpha virt. eigenvalues --    9.71559   9.73446   9.73446   9.77572   9.77572
 Alpha virt. eigenvalues --    9.84009   9.84009   9.84264   9.84264   9.84792
 Alpha virt. eigenvalues --    9.84792   9.88648   9.91605   9.91605  10.10403
 Alpha virt. eigenvalues --   10.34269  11.04710  11.04710  11.07143  11.07143
 Alpha virt. eigenvalues --   11.23021  13.81594  18.10651  18.10651  18.19723
 Alpha virt. eigenvalues --   18.26725  18.26725  18.26915  18.26915  18.27389
 Alpha virt. eigenvalues --   18.27389  18.32984  18.32984  18.49905  20.28705
 Alpha virt. eigenvalues --   20.28705  20.30247  20.30247  20.33010  20.33010
 Alpha virt. eigenvalues --   20.39963  21.03770  21.03770  21.15396  21.15396
 Alpha virt. eigenvalues --   21.38392  21.85711  21.85711  21.87914  21.87914
 Alpha virt. eigenvalues --   21.98590  23.54643  23.54643  23.70217  28.49073
 Alpha virt. eigenvalues --   28.57537  34.77118  34.77118  34.77245  34.77245
 Alpha virt. eigenvalues --   34.77676  34.77676  34.82223  34.82223  34.95058
 Alpha virt. eigenvalues --   36.21390  36.21390  36.32312  43.25049  43.25049
 Alpha virt. eigenvalues --   43.26167  43.26167  43.35438  43.50908  43.50908
 Alpha virt. eigenvalues --   43.52208  43.52208  43.55522  43.55522  43.60198
 Alpha virt. eigenvalues --   52.29807  52.29807  52.39157  52.39157  52.58655
 Alpha virt. eigenvalues --   58.33970  64.79000  64.79000  64.91582  68.48218
 Alpha virt. eigenvalues --   68.48218  68.48305  68.48305  68.48664  68.48664
 Alpha virt. eigenvalues --   68.52234  68.52234  68.62506  72.23763  72.23763
 Alpha virt. eigenvalues --   72.33806  83.42633  85.65062  85.65062  85.66627
 Alpha virt. eigenvalues --   85.66627  85.74176  95.38190  95.38190  95.39238
 Alpha virt. eigenvalues --   95.39238  95.41380  95.41380  95.45518 118.15115
 Alpha virt. eigenvalues --  130.87370 130.87370 130.94869 130.94869 131.10401
 Alpha virt. eigenvalues --  138.90700 138.90700 138.90762 138.90762 138.91045
 Alpha virt. eigenvalues --  138.91045 138.93785 138.93785 139.01707 143.76536
 Alpha virt. eigenvalues --  143.76536 143.85724 169.99921 169.99921 170.01313
 Alpha virt. eigenvalues --  170.01313 170.07775 180.30602 180.30602 180.41436
 Alpha virt. eigenvalues --  211.40999 211.40999 211.41828 211.41828 211.43496
 Alpha virt. eigenvalues --  211.43496 211.46721 237.59715 246.31586 285.48331
 Alpha virt. eigenvalues --  285.48331 285.56726 288.51411 288.51411 288.51455
 Alpha virt. eigenvalues --  288.51455 288.51674 288.51674 288.53746 288.53746
 Alpha virt. eigenvalues --  288.59752 320.99456 320.99456 321.05461 321.05461
 Alpha virt. eigenvalues --  321.17909 339.27489 339.27489 339.28710 339.28710
 Alpha virt. eigenvalues --  339.34370 467.47176 467.47176 467.47828 467.47828
 Alpha virt. eigenvalues --  467.49134 467.49134 467.51636 475.05423 482.89255
 Alpha virt. eigenvalues --  482.89255 482.98397 565.62229 565.62229 565.69998
 Alpha virt. eigenvalues --  607.01532 607.01532 607.01565 607.01565 607.01729
 Alpha virt. eigenvalues --  607.01729 607.03285 607.03285 607.07797 687.73396
 Alpha virt. eigenvalues --  687.73396 687.74457 687.74457 687.79336 693.58351
 Alpha virt. eigenvalues --  757.37343 757.37343 757.42236 757.42236 757.52368
 Alpha virt. eigenvalues --  945.336561020.789171020.789171020.794311020.79431
 Alpha virt. eigenvalues -- 1020.804641020.804641020.824751118.180251118.18025
 Alpha virt. eigenvalues -- 1118.252021208.117711208.117711208.195971281.58155
 Alpha virt. eigenvalues -- 1281.581551281.581831281.581831281.583001281.58300
 Alpha virt. eigenvalues -- 1281.594661281.594661281.628541459.983781459.98378
 Alpha virt. eigenvalues -- 1459.992871459.992871460.034631714.548371714.54837
 Alpha virt. eigenvalues -- 1714.589091714.589091714.673331812.583231873.99061
 Alpha virt. eigenvalues -- 2191.663662191.663662191.667762191.667762191.67601
 Alpha virt. eigenvalues -- 2191.676012191.691972206.087252206.087252206.15375
 Alpha virt. eigenvalues -- 2720.528872720.528872720.529112720.529112720.52993
 Alpha virt. eigenvalues -- 2720.529932720.538642720.538642720.563992829.19340
 Alpha virt. eigenvalues -- 2829.193402829.261843703.806773746.836163746.83616
 Alpha virt. eigenvalues -- 3746.870663746.870663746.941964345.077494345.07749
 Alpha virt. eigenvalues -- 4345.138924404.392504625.639464625.639464625.64276
 Alpha virt. eigenvalues -- 4625.642764625.649424625.649424625.662385905.11696
 Alpha virt. eigenvalues -- 5905.116965905.117135905.117135905.117745905.11774
 Alpha virt. eigenvalues -- 5905.124105905.124105905.142596293.935036293.93503
 Alpha virt. eigenvalues -- 6293.996097304.313577963.824687963.824687963.85425
 Alpha virt. eigenvalues -- 7963.854257963.915288546.866878546.866878546.92377
 Alpha virt. eigenvalues -- 9624.502179624.502179624.504879624.504879624.51027
 Alpha virt. eigenvalues -- 9624.510279624.52077******************************
 Alpha virt. eigenvalues -- **************************************************
 Alpha virt. eigenvalues -- **************************************************
 Alpha virt. eigenvalues -- **************************************************
 Alpha virt. eigenvalues -- **************************************************
 Alpha virt. eigenvalues -- **************************************************
 Alpha virt. eigenvalues -- **************************************************
 Alpha virt. eigenvalues -- **************************************************
 Alpha virt. eigenvalues -- **************************************************
 Alpha virt. eigenvalues -- **************************************************
 Alpha virt. eigenvalues -- **************************************************
 Alpha virt. eigenvalues -- **************************************************
 Alpha virt. eigenvalues -- **************************************************
 Alpha virt. eigenvalues -- **************************************************
 Alpha virt. eigenvalues -- **************************************************
 Alpha virt. eigenvalues -- **************************************************
 Alpha virt. eigenvalues -- **************************************************
 Alpha virt. eigenvalues -- **************************************************
 Alpha virt. eigenvalues -- **************************************************
 Alpha virt. eigenvalues -- **************************************************
 Alpha virt. eigenvalues -- **************************************************
 Alpha virt. eigenvalues -- **************************************************
 Alpha virt. eigenvalues -- **************************************************
 Alpha virt. eigenvalues -- **************************************************
 Alpha virt. eigenvalues -- **************************************************
 Alpha virt. eigenvalues -- **************************************************
 Alpha virt. eigenvalues -- **************************************************
 Alpha virt. eigenvalues -- **************************************************
 Alpha virt. eigenvalues -- **************************************************
 Alpha virt. eigenvalues -- **********
          Condensed to atoms (all electrons):
               1          2
     1  Au  78.550880   0.419452
     2  Li   0.419452   2.610215
          Atomic-Atomic Spin Densities.
               1          2
     1  Au   0.000000   0.000000
     2  Li   0.000000   0.000000
 Mulliken charges and spin densities:
               1          2
     1  Au   0.029668   0.000000
     2  Li  -0.029668   0.000000
 Sum of Mulliken charges =  -0.00000   0.00000
 Mulliken charges and spin densities with hydrogens summed into heavy atoms:
               1          2
     1  Au   0.029668   0.000000
     2  Li  -0.029668   0.000000
 Electronic spatial extent (au):  <R**2>=            123.6829
 Charge=             -0.0000 electrons
 Dipole moment (field-independent basis, Debye):
    X=              0.0000    Y=              0.0000    Z=             -2.2800  Tot=              2.2800
 Quadrupole moment (field-independent basis, Debye-Ang):
   XX=            -36.7312   YY=            -36.7312   ZZ=            -20.9156
   XY=              0.0000   XZ=              0.0000   YZ=              0.0000
 Traceless Quadrupole moment (field-independent basis, Debye-Ang):
   XX=             -5.2719   YY=             -5.2719   ZZ=             10.5437
   XY=              0.0000   XZ=              0.0000   YZ=              0.0000
 Octapole moment (field-independent basis, Debye-Ang**2):
  XXX=              0.0000  YYY=              0.0000  ZZZ=            -11.4128  XYY=              0.0000
  XXY=              0.0000  XXZ=             10.6458  XZZ=              0.0000  YZZ=              0.0000
  YYZ=             10.6458  XYZ=              0.0000
 Hexadecapole moment (field-independent basis, Debye-Ang**3):
 XXXX=            -83.4629 YYYY=            -83.4629 ZZZZ=            -66.7084 XXXY=              0.0000
 XXXZ=              0.0000 YYYX=              0.0000 YYYZ=              0.0000 ZZZX=              0.0000
 ZZZY=              0.0000 XXYY=            -27.8210 XXZZ=            -42.8746 YYZZ=            -42.8746
 XXYZ=              0.0000 YYXZ=              0.0000 ZZXY=              0.0000
 N-N= 5.507785266093D+01 E-N=-4.269645559171D+04  KE= 1.787295685552D+04
 Symmetry A1   KE= 1.157269258866D+04
 Symmetry A2   KE= 6.984799868589D+02
 Symmetry B1   KE= 2.800892140009D+03
 Symmetry B2   KE= 2.800892140035D+03
 Symmetry A1   SP= 0.000000000000D+00
 Symmetry A2   SP= 0.000000000000D+00
 Symmetry B1   SP= 0.000000000000D+00
 Symmetry B2   SP= 0.000000000000D+00
                          Isotropic Fermi Contact Couplings
        Atom                 a.u.       MegaHertz       Gauss      10(-4) cm-1
     1  Au(197             0.00000       0.00000       0.00000       0.00000
     2  Li(7)              0.00000       0.00000       0.00000       0.00000
 --------------------------------------------------------
       Center         ----  Spin Dipole Couplings  ----
                      3XX-RR        3YY-RR        3ZZ-RR
 --------------------------------------------------------
     1   Atom        0.000000      0.000000      0.000000
     2   Atom        0.000000      0.000000      0.000000
 --------------------------------------------------------
                        XY            XZ            YZ
 --------------------------------------------------------
     1   Atom        0.000000      0.000000      0.000000
     2   Atom        0.000000      0.000000      0.000000
 --------------------------------------------------------


 ---------------------------------------------------------------------------------
              Anisotropic Spin Dipole Couplings in Principal Axis System
 ---------------------------------------------------------------------------------

       Atom             a.u.   MegaHertz   Gauss  10(-4) cm-1        Axes

              Baa     0.0000     0.000     0.000     0.000  1.0000  0.0000  0.0000
     1 Au(197 Bbb     0.0000     0.000     0.000     0.000 -0.0000  1.0000  0.0000
              Bcc     0.0000     0.000     0.000     0.000  0.0000  0.0000  1.0000
 
              Baa     0.0000     0.000     0.000     0.000  1.0000  0.0000  0.0000
     2 Li(7)  Bbb     0.0000     0.000     0.000     0.000 -0.0000  1.0000  0.0000
              Bcc     0.0000     0.000     0.000     0.000  0.0000  0.0000  1.0000
 

 ---------------------------------------------------------------------------------

 No NMR shielding tensors so no spin-rotation constants.
 Leave Link  601 at Sat Feb  3 16:20:00 2018, MaxMem=  8589934592 cpu:              25.5 elap:               2.2
 (Enter /appl/chem/G16RevA.03/g16/l9999.exe)
 1\1\GINC-C670\SP\ROHF\UGBS1P\Au1Li1\SLEHTOLA\03-Feb-2018\0\\#P ROHF/UG
 BS1P units=au punch=mo gfinput integral(grid=450590)\\Gold-lithium\\0,
 1\Au\Li,1,2.2770495386\\Version=ES64L-G16RevA.03\State=1-SG\HF=-17872.
 8370311\RMSD=1.067e-09\Dipole=0.,0.,0.8970027\Quadrupole=-3.9195083,-3
 .9195083,7.8390167,0.,0.,0.\PG=C*V [C*(Li1Au1)]\\@


 OUR LITTLE SYSTEMS HAVE THEIR DAY,    
   THEY HAVE THEIR DAY AND CEASE TO BE.
   THEY ARE BUT BROKEN LIGHTS OF THEE, 
 AND THOU, OH LORD, ART MORE THAN THEY.
          -------------------          
 LET KNOWLEDGE GROW FROM MORE TO MORE, 
   BUT MORE OF REVERENCE IN US DWELL.  
   THAT MIND AND SOUL, ACCORDING WELL, 
 MAY MAKE ONE MUSIC AS BEFORE.....     
          -------------------          
                    LORD TENNYSON      
 Job cpu time:       0 days  2 hours 50 minutes 37.9 seconds.
 Elapsed time:       0 days  0 hours 14 minutes 14.5 seconds.
 File lengths (MBytes):  RWF=    312 Int=      0 D2E=      0 Chk=     30 Scr=      1
 Normal termination of Gaussian 16 at Sat Feb  3 16:20:00 2018.
