 Entering Gaussian System, Link 0=/user/applications/g94/g94
 Initial command:
 /user/applications/g94/l1.exe /user/home/ifiz/jkob/programs/gauss94/f2/g94-25811.inp -scrdir=/user/home/ifiz/jkob/programs/gauss94/f2/
 Entering Link 1 = /user/applications/g94/l1.exe PID=     25813.
  
       Copyright (c) 1988,1990,1992,1993,1995 Gaussian, Inc.
                     All Rights Reserved.
  
 This is part of the Gaussian 94(TM) system of programs. It is
 based on the the Gaussian 92(TM) system (copyright 1992
 Gaussian, Inc.), the Gaussian 90(TM) system (copyright 1990
 Gaussian, Inc.), the Gaussian 88(TM) system (copyright 1988
 Gaussian, Inc.), the Gaussian 86(TM) system (copyright 1986
 Carnegie Mellon University), and the Gaussian 82(TM) system
 (copyright 1983 Carnegie Mellon University). Gaussian is a
 federally registered trademark of Gaussian, Inc.
  
 This software is provided under written license and may be
 used, copied, transmitted, or stored only in accord with that
 written license.
  
 The following legend is applicable only to US Government
 contracts under DFARS:
  
                    RESTRICTED RIGHTS LEGEND
  
 Use, duplication or disclosure by the US Government is subject
 to restrictions as set forth in subparagraph (c)(1)(ii) of the
 Rights in Technical Data and Computer Software clause at DFARS
 252.227-7013.
  
 Gaussian, Inc.
 Carnegie Office Park, Building 6, Pittsburgh, PA 15106 USA
  
 The following legend is applicable only to US Government
 contracts under FAR:
  
                    RESTRICTED RIGHTS LEGEND
  
 Use, reproduction and disclosure by the US Government is subject
 to restrictions as set forth in subparagraph (c) of the
 Commercial Computer Software - Restricted Rights clause at FAR
 52.227-19.
  
 Gaussian, Inc.
 Carnegie Office Park, Building 6, Pittsburgh, PA 15106 USA
  
 Cite this work as:
 Gaussian 94, Revision C.3,
 M. J. Frisch, G. W. Trucks, H. B. Schlegel, P. M. W. Gill,
 B. G. Johnson, M. A. Robb, J. R. Cheeseman, T. Keith,
 G. A. Petersson, J. A. Montgomery, K. Raghavachari,
 M. A. Al-Laham, V. G. Zakrzewski, J. V. Ortiz, J. B. Foresman,
 J. Cioslowski, B. B. Stefanov, A. Nanayakkara, M. Challacombe,
 C. Y. Peng, P. Y. Ayala, W. Chen, M. W. Wong, J. L. Andres,
 E. S. Replogle, R. Gomperts, R. L. Martin, D. J. Fox,
 J. S. Binkley, D. J. Defrees, J. Baker, J. P. Stewart,
 M. Head-Gordon, C. Gonzalez, and J. A. Pople,
 Gaussian, Inc., Pittsburgh PA, 1995.
  
 *************************************************
 Gaussian 94:  Sun-SVR4-Unix-G94RevC.3 26-Sep-1995
                    21-Sep-1998
 *************************************************
 %mem=4000000
 ------------------------------------------------------------
 #p rhf/6-311G(2df,p) test gfprint punch=mo gfinput scf=tight
 ------------------------------------------------------------
 1/38=1/1;
 2/12=2,17=6,18=5/2;
 3/5=4,6=6,7=104,11=1,24=11,25=1,30=1/1,2,3;
 4/7=1/1;
 5/5=2,32=2,38=4/2;
 6/7=2,8=2,9=2,10=2,19=1,28=1/1;
 99/5=1,9=1,10=32/99;
 Leave Link    1 at Mon Sep 21 17:40:36 1998, MaxMem=    4000000 cpu:       0.7
 (Enter /user/applications/g94/l101.exe)
 --
 C2
 --
 Symbolic Z-matrix:
    Charge = 0 Multiplicity = 1
 F     0.        0.        -0.70592 
 F     0.        0.        0.70592 
 Leave Link  101 at Mon Sep 21 17:40:37 1998, MaxMem=    4000000 cpu:       0.1
 (Enter /user/applications/g94/l202.exe)
 ------------------------------------------------------------------------
                         Z-MATRIX (ANGSTROMS AND DEGREES)
 CD Cent Atom  N1     Length/X     N2    Alpha/Y     N3     Beta/Z      J
 ------------------------------------------------------------------------
   1   1  F     0   0.000000          0.000000         -0.705922
   2   2  F     0   0.000000          0.000000          0.705922
 ------------------------------------------------------------------------
                  Z-Matrix orientation:
 ----------------------------------------------------------
 Center     Atomic              Coordinates (Angstroms)
 Number     Number             X           Y           Z
 ----------------------------------------------------------
    1          9           0.000000    0.000000   -0.705922
    2          9           0.000000    0.000000    0.705922
 ----------------------------------------------------------
 Stoichiometry    F2
 Framework group  D*H[C*(F.F)]
 Deg. of freedom    1
 Full point group                 D*H     NOp   8
 Largest Abelian subgroup         D2H     NOp   8
 Largest concise Abelian subgroup C2      NOp   2
                   Standard orientation:
 ----------------------------------------------------------
 Center     Atomic              Coordinates (Angstroms)
 Number     Number             X           Y           Z
 ----------------------------------------------------------
    1          9           0.000000    0.000000    0.705922
    2          9           0.000000    0.000000   -0.705922
 ----------------------------------------------------------
 Rotational constants (GHZ):      0.0000000     26.6904668     26.6904668
 Isotopes: F-19,F-19
 Leave Link  202 at Mon Sep 21 17:40:39 1998, MaxMem=    4000000 cpu:       0.2
 (Enter /user/applications/g94/l301.exe)
 Standard basis: 6-311G(2df,p) (5D, 7F)
 ***********************************************************************************************************************************
 *             ATOMIC CENTER             *        ATOMIC ORBITAL       *                     GAUSSIAN FUNCTIONS                    *
 ***********************************************************************************************************************************
 *                                       * FUNCTION    SHELL    SCALE  *                                                           *
 *    ATOM   X-COORD  Y-COORD  Z-COORD   *  NUMBER     TYPE     FACTOR *  EXPONENT    S-COEF      P-COEF      D-COEF      F-COEF   *
 ***********************************************************************************************************************************
 *     F      0.00000  0.00000  1.33400                                                                                            *
+                                                1               1.00                                                               
+                                                                      0.114271D+050.180093D-020.000000D+000.000000D+000.000000D+00 
 *                                                                     0.172235D+040.137419D-010.000000D+000.000000D+000.000000D+00*
 *                                                                     0.395746D+030.681334D-010.000000D+000.000000D+000.000000D+00*
 *                                                                     0.115139D+030.233325D+000.000000D+000.000000D+000.000000D+00*
 *                                                                     0.336026D+020.589086D+000.000000D+000.000000D+000.000000D+00*
 *                                                                     0.491901D+010.299505D+000.000000D+000.000000D+000.000000D+00*
 *                                           2-  5               1.00                                                              *
+                                                                      0.554441D+020.114536D+000.354609D-010.000000D+000.000000D+00 
 *                                                                     0.126323D+020.920512D+000.237451D+000.000000D+000.000000D+00*
 *                                                                     0.371756D+01-.337804D-020.820458D+000.000000D+000.000000D+00*
 *                                           6-  9               1.00                                                              *
+                                                                      0.116545D+010.100000D+010.100000D+010.000000D+000.000000D+00 
 *                                          10- 13               1.00                                                              *
+                                                                      0.321892D+000.100000D+010.100000D+010.000000D+000.000000D+00 
 *                                          14- 18               1.00                                                              *
+                                                                      0.350000D+010.000000D+000.000000D+000.100000D+010.000000D+00 
 *                                          19- 23               1.00                                                              *
+                                                                      0.875000D+000.000000D+000.000000D+000.100000D+010.000000D+00 
 *                                          24- 30               1.00                                                              *
+                                                                      0.185000D+010.000000D+000.000000D+000.000000D+000.100000D+01 
 *---------------------------------------------------------------------------------------------------------------------------------*
 *     F      0.00000  0.00000 -1.33400                                                                                            *
+                                               31               1.00                                                               
+                                                                      0.114271D+050.180093D-020.000000D+000.000000D+000.000000D+00 
 *                                                                     0.172235D+040.137419D-010.000000D+000.000000D+000.000000D+00*
 *                                                                     0.395746D+030.681334D-010.000000D+000.000000D+000.000000D+00*
 *                                                                     0.115139D+030.233325D+000.000000D+000.000000D+000.000000D+00*
 *                                                                     0.336026D+020.589086D+000.000000D+000.000000D+000.000000D+00*
 *                                                                     0.491901D+010.299505D+000.000000D+000.000000D+000.000000D+00*
 *                                          32- 35               1.00                                                              *
+                                                                      0.554441D+020.114536D+000.354609D-010.000000D+000.000000D+00 
 *                                                                     0.126323D+020.920512D+000.237451D+000.000000D+000.000000D+00*
 *                                                                     0.371756D+01-.337804D-020.820458D+000.000000D+000.000000D+00*
 *                                          36- 39               1.00                                                              *
+                                                                      0.116545D+010.100000D+010.100000D+010.000000D+000.000000D+00 
 *                                          40- 43               1.00                                                              *
+                                                                      0.321892D+000.100000D+010.100000D+010.000000D+000.000000D+00 
 *                                          44- 48               1.00                                                              *
+                                                                      0.350000D+010.000000D+000.000000D+000.100000D+010.000000D+00 
 *                                          49- 53               1.00                                                              *
+                                                                      0.875000D+000.000000D+000.000000D+000.100000D+010.000000D+00 
 *                                          54- 60               1.00                                                              *
+                                                                      0.185000D+010.000000D+000.000000D+000.000000D+000.100000D+01 
 ***********************************************************************************************************************************
 Basis set in the form of general basis input:
  1 0
 S    6 1.00
  0.1142710000D+05  0.1800930000D-02
  0.1722350000D+04  0.1374190000D-01
  0.3957460000D+03  0.6813340000D-01
  0.1151390000D+03  0.2333250000D+00
  0.3360260000D+02  0.5890860000D+00
  0.4919010000D+01  0.2995050000D+00
 SP   3 1.00
  0.5544410000D+02  0.1145360000D+00  0.3546090000D-01
  0.1263230000D+02  0.9205120000D+00  0.2374510000D+00
  0.3717560000D+01 -0.3378040000D-02  0.8204580000D+00
 SP   1 1.00
  0.1165450000D+01  0.1000000000D+01  0.1000000000D+01
 SP   1 1.00
  0.3218920000D+00  0.1000000000D+01  0.1000000000D+01
 D    1 1.00
  0.3500000000D+01  0.1000000000D+01
 D    1 1.00
  0.8750000000D+00  0.1000000000D+01
 F    1 1.00
  0.1850000000D+01  0.1000000000D+01
 ****
  2 0
 S    6 1.00
  0.1142710000D+05  0.1800930000D-02
  0.1722350000D+04  0.1374190000D-01
  0.3957460000D+03  0.6813340000D-01
  0.1151390000D+03  0.2333250000D+00
  0.3360260000D+02  0.5890860000D+00
  0.4919010000D+01  0.2995050000D+00
 SP   3 1.00
  0.5544410000D+02  0.1145360000D+00  0.3546090000D-01
  0.1263230000D+02  0.9205120000D+00  0.2374510000D+00
  0.3717560000D+01 -0.3378040000D-02  0.8204580000D+00
 SP   1 1.00
  0.1165450000D+01  0.1000000000D+01  0.1000000000D+01
 SP   1 1.00
  0.3218920000D+00  0.1000000000D+01  0.1000000000D+01
 D    1 1.00
  0.3500000000D+01  0.1000000000D+01
 D    1 1.00
  0.8750000000D+00  0.1000000000D+01
 F    1 1.00
  0.1850000000D+01  0.1000000000D+01
 ****

 There are    13 symmetry adapted basis functions of AG  symmetry.
 There are     3 symmetry adapted basis functions of B1G symmetry.
 There are     7 symmetry adapted basis functions of B2G symmetry.
 There are     7 symmetry adapted basis functions of B3G symmetry.
 There are     3 symmetry adapted basis functions of AU  symmetry.
 There are    13 symmetry adapted basis functions of B1U symmetry.
 There are     7 symmetry adapted basis functions of B2U symmetry.
 There are     7 symmetry adapted basis functions of B3U symmetry.
 Crude estimate of integral set expansion from redundant integrals=1.000.
 Integral buffers will be    262144 words long.
 Raffenetti 1 integral format.
 Two-electron integral symmetry is turned on.
    60 basis functions       86 primitive gaussians
     9 alpha electrons        9 beta electrons
       nuclear repulsion energy        30.3598200971 Hartrees.
 Leave Link  301 at Mon Sep 21 17:40:42 1998, MaxMem=    4000000 cpu:       0.3
 (Enter /user/applications/g94/l302.exe)
 One-electron integrals computed using PRISM.
 One-electron integral symmetry used in STVInt
 The smallest eigenvalue of the overlap matrix is  2.473D-02
 Leave Link  302 at Mon Sep 21 17:40:52 1998, MaxMem=    4000000 cpu:       6.9
 (Enter /user/applications/g94/l303.exe)
 DipDrv:  MaxL=1.
 Leave Link  303 at Mon Sep 21 17:40:57 1998, MaxMem=    4000000 cpu:       2.7
 (Enter /user/applications/g94/l401.exe)
 Projected INDO Guess.
 Initial guess orbital symmetries:
       Occupied  (SGG) (SGU) (SGG) (SGU) (PIU) (PIU) (SGG) (PIG)
                 (PIG)
       Virtual   (SGU) (SGG) (SGG) (PIG) (PIG) (SGG) (PIG) (PIG)
                 (SGG) (SGG) (PIG) (PIG) (SGG) (PIG) (PIG) (DLTG)
                 (DLTG) (SGG) (PIG) (PIG) (DLTG) (DLTG) (SGU) (PIU)
                 (PIU) (DLTG) (DLTG) (PHIG) (PHIG) (SGU) (PIU)
                 (PIU) (SGU) (SGU) (PIU) (PIU) (SGU) (SGU) (PIU)
                 (PIU) (DLTU) (DLTU) (SGU) (PIU) (PIU) (DLTU) (DLTU)
                 (DLTU) (DLTU) (PHIU) (PHIU)
 Leave Link  401 at Mon Sep 21 17:41:05 1998, MaxMem=    4000000 cpu:       4.3
 (Enter /user/applications/g94/l502.exe)
 A Direct SCF calculation will be performed.
 Using DIIS extrapolation.
 IExCor= 0 DFT=F Ex=HF Corr=None ScaHFX= 1.0000 IRadAn=      0
 ScaDFX=  0.0000  0.0000  0.0000  0.0000
 Closed shell SCF:
 Requested convergence on RMS density matrix=1.00D-08 within  64 cycles.
 Requested convergence on MAX density matrix=1.00D-06.
 Integral symmetry usage will be decided dynamically.
 IEnd=     21805 IEndB=     21805 NGot=   4000000 MDV=   3987390
 LenX=   3987390
 Fock matrices will be formed incrementally for  20 cycles.
 Integral accuracy reduced to 1.0D-05 until final iterations.
 
 Cycle   1  Pass 0:
 Petite list used in FoFDir.
 MinBra= 0 MaxBra= 3 MinRaf= 0 MaxRaf= 3.
 IRaf=       0 NMat=   1 IRICut=       1 DoRegI=T DoRafI=F ISym2E= 1 JSym2E=1.
 E=-0.228248918230744D+03
 DIIS: error= 2.54D-01 at cycle   1.
 RMSDP=1.09D-02 MaxDP=2.31D-01
 
 Cycle   2  Pass 0:
 RMSU=  1.01D-02    CP:  8.69D-01
 E=-0.229093528670265D+03 Delta-E=       -0.844610439521
 DIIS: error= 2.11D-02 at cycle   2.
 RMSDP=8.72D-04 MaxDP=1.50D-02
 
 Cycle   3  Pass 0:
 RMSU=  4.88D-04    CP:  8.59D-01  1.06D+00
 E=-0.229098798377037D+03 Delta-E=       -0.005269706772
 DIIS: error= 1.51D-03 at cycle   3.
 Coeff: 0.690D-01-0.107D+01
 RMSDP=1.09D-04 MaxDP=1.59D-03
 
 Cycle   4  Pass 0:
 RMSU=  4.23D-05    CP:  8.58D-01  1.07D+00  1.14D+00
 E=-0.229098878702598D+03 Delta-E=       -0.000080325561
 DIIS: error= 3.15D-04 at cycle   4.
 Coeff: 0.776D-02-0.302D-01-0.978D+00
 RMSDP=2.45D-05 MaxDP=5.22D-04
 
 Cycle   5  Pass 0:
 RMSU=  1.23D-05    CP:  8.58D-01  1.07D+00  1.18D+00  1.09D+00
 E=-0.229098881787545D+03 Delta-E=       -0.000003084946
 DIIS: error= 6.65D-05 at cycle   5.
 Coeff:-0.545D-02 0.630D-01 0.190D-01-0.108D+01
 RMSDP=5.71D-06 MaxDP=7.38D-05
 
 Initial convergence to 1.0D-05 achieved.  Increase integral accuracy.
 Cycle   6  Pass 1:
 E=-0.229098881673642D+03 Delta-E=        0.000000113903
 DIIS: error= 1.31D-05 at cycle   1.
 RMSDP=5.71D-06 MaxDP=7.38D-05
 
 Cycle   7  Pass 1:
 RMSU=  9.86D-07    CP:  1.00D+00
 E=-0.229098881683849D+03 Delta-E=       -0.000000010207
 DIIS: error= 4.62D-06 at cycle   2.
 Coeff:-0.996D-01-0.900D+00
 RMSDP=3.63D-07 MaxDP=7.31D-06
 
 Cycle   8  Pass 1:
 RMSU=  3.56D-07    CP:  1.00D+00  9.52D-01
 E=-0.229098881685115D+03 Delta-E=       -0.000000001266
 DIIS: error= 1.76D-06 at cycle   3.
 Coeff: 0.125D+00 0.347D-01-0.116D+01
 RMSDP=1.57D-07 MaxDP=2.04D-06
 
 Cycle   9  Pass 1:
 RMSU=  2.49D-08    CP:  1.00D+00  1.09D+00  1.19D+00
 E=-0.229098881685307D+03 Delta-E=       -0.000000000192
 DIIS: error= 1.34D-07 at cycle   4.
 Coeff: 0.181D-01 0.203D-01-0.120D+00-0.919D+00
 RMSDP=9.71D-09 MaxDP=1.25D-07
 
 SCF Done:  E(RHF) =  -198.739061588     A.U. after    9 cycles
             Convg  =    0.9709D-08             -V/T =  2.0008
             S**2   =   0.0000
 KE= 1.985803341620D+02 PE=-5.371862583975D+02 EE= 1.095070425502D+02
 Leave Link  502 at Mon Sep 21 17:43:21 1998, MaxMem=    4000000 cpu:     127.3
 (Enter /user/applications/g94/l601.exe)
 Copying SCF densities to generalized density rwf, ISCF=0 IROHF=0.

 **********************************************************************

            Population analysis using the SCF density.

 **********************************************************************

 Orbital Symmetries:
       Occupied  (SGG) (SGU) (SGG) (SGU) (PIU) (PIU) (SGG) (PIG)
                 (PIG)
       Virtual   (SGU) (SGU) (PIU) (PIU) (SGG) (PIG) (PIG) (SGG)
                 (SGU) (PIU) (PIU) (DLTG) (DLTG) (DLTU) (DLTU)
                 (SGG) (PIG) (PIG) (SGU) (SGG) (PIU) (PIU) (PIG)
                 (PIG) (SGU) (PIU) (PIU) (DLTG) (DLTG) (PHIU) (PHIU)
                 (SGG) (PHIG) (PHIG) (DLTU) (DLTU) (PIG) (PIG)
                 (SGU) (PIU) (PIU) (DLTG) (DLTG) (DLTU) (DLTU)
                 (SGG) (PIG) (PIG) (SGU) (SGG) (SGU)
  The electronic state is 1-SGG.
 Alpha  occ. eigenvalues --  -26.42429 -26.42405  -1.76059  -1.49400  -0.80854
 Alpha  occ. eigenvalues --   -0.80854  -0.74816  -0.66388  -0.66388
 Alpha virt. eigenvalues --    0.10102   1.10757   1.10883   1.10883   1.21571
 Alpha virt. eigenvalues --    1.26258   1.26258   1.35874   1.79497   1.92756
 Alpha virt. eigenvalues --    1.92756   2.13771   2.13771   2.36313   2.36313
 Alpha virt. eigenvalues --    2.38997   2.86670   2.86670   3.61326   6.09415
 Alpha virt. eigenvalues --    6.38845   6.38845   6.61519   6.61519   6.67749
 Alpha virt. eigenvalues --    6.74359   6.74359   6.89559   6.89559   7.07661
 Alpha virt. eigenvalues --    7.07661   7.07760   7.10899   7.10899   7.21746
 Alpha virt. eigenvalues --    7.21746   7.67193   7.67193   8.31119   9.48565
 Alpha virt. eigenvalues --    9.48565   9.52968   9.52968   9.66514   9.66514
 Alpha virt. eigenvalues --    9.99985  10.09242  10.09242  10.96342  68.45530
 Alpha virt. eigenvalues --   68.56720
          Condensed to atoms (all electrons):
              1          2
  1  F    8.949999   0.050001
  2  F    0.050001   8.949999
 Total atomic charges:
              1
  1  F    0.000000
  2  F    0.000000
 Sum of Mulliken charges=   0.00000
 Atomic charges with hydrogens summed into heavy atoms:
              1
  1  F    0.000000
  2  F    0.000000
 Sum of Mulliken charges=   0.00000
 Electronic spatial extent (au):  <R**2>=    52.4108
 Charge=     0.0000 electrons
 Dipole moment (Debye):
    X=     0.0000    Y=     0.0000    Z=     0.0000  Tot=     0.0000
 Quadrupole moment (Debye-Ang):
   XX=    -9.3966   YY=    -9.3966   ZZ=    -8.6173
   XY=     0.0000   XZ=     0.0000   YZ=     0.0000
 Octapole moment (Debye-Ang**2):
  XXX=     0.0000  YYY=     0.0000  ZZZ=     0.0000  XYY=     0.0000
  XXY=     0.0000  XXZ=     0.0000  XZZ=     0.0000  YZZ=     0.0000
  YYZ=     0.0000  XYZ=     0.0000
 Hexadecapole moment (Debye-Ang**3):
 XXXX=    -5.1042 YYYY=    -5.1042 ZZZZ=   -28.7114 XXXY=     0.0000
 XXXZ=     0.0000 YYYX=     0.0000 YYYZ=     0.0000 ZZZX=     0.0000
 ZZZY=     0.0000 XXYY=    -1.7014 XXZZ=    -6.3505 YYZZ=    -6.3505
 XXYZ=     0.0000 YYXZ=     0.0000 ZZXY=     0.0000
 N-N= 3.035982009709D+01 E-N=-5.371862566618D+02  KE= 1.985803341620D+02
 Symmetry AG   KE= 8.805315039036D+01
 Symmetry B1G  KE= 6.357012154251D-30
 Symmetry B2G  KE= 7.374172350222D+00
 Symmetry B3G  KE= 7.374172350222D+00
 Symmetry AU   KE= 9.377609276962D-30
 Symmetry B1U  KE= 8.331870310724D+01
 Symmetry B2U  KE= 6.230067981989D+00
 Symmetry B3U  KE= 6.230067981989D+00
 Leave Link  601 at Mon Sep 21 17:43:28 1998, MaxMem=    4000000 cpu:       3.6
 (Enter /user/applications/g94/l9999.exe)

 Test job not archived.
 1\1\GINC-BOR\SP\RHF\6-311G(2df,p)\F2\JKOB\21-Sep-1998\0\\#P RHF/6-311G
 (2DF,P) TEST GFPRINT PUNCH=MO GFINPUT SCF=TIGHT\\C2\\0,1\F,0,0.,0.,-0.
 70592245\F,0,0.,0.,0.70592245\\Version=Sun-SVR4-Unix-G94RevC.3\State=1
 -SGG\HF=-198.7390616\RMSD=9.709e-09\Dipole=0.,0.,0.\PG=D*H [C*(F1.F1)]
 \\@


 You can't act like a skunk without someone's getting wind of it.
 -- Lorene Workman
 Job cpu time:  0 days  0 hours  2 minutes 29.3 seconds.
 File lengths (MBytes):  RWF=    5 Int=    0 D2E=    0 Chk=    1 Scr=    1
 Normal termination of Gaussian 94
-rw-r--r--   1 jkob     kmk          181 Sep 21 17:40 f2.inp
-rw-r--r--   1 jkob     kmk        22879 Sep 21 17:43 f2.out
