 Entering Gaussian System, Link 0=/user/applications/g94/g94
 Initial command:
 /user/applications/g94/l1.exe /user/home/ifiz/jkob/programs/gauss94/c2/g94-1686.inp -scrdir=/user/home/ifiz/jkob/programs/gauss94/c2/
 Entering Link 1 = /user/applications/g94/l1.exe PID=      1688.
  
       Copyright (c) 1988,1990,1992,1993,1995 Gaussian, Inc.
                     All Rights Reserved.
  
 This is part of the Gaussian 94(TM) system of programs. It is
 based on the the Gaussian 92(TM) system (copyright 1992
 Gaussian, Inc.), the Gaussian 90(TM) system (copyright 1990
 Gaussian, Inc.), the Gaussian 88(TM) system (copyright 1988
 Gaussian, Inc.), the Gaussian 86(TM) system (copyright 1986
 Carnegie Mellon University), and the Gaussian 82(TM) system
 (copyright 1983 Carnegie Mellon University). Gaussian is a
 federally registered trademark of Gaussian, Inc.
  
 This software is provided under written license and may be
 used, copied, transmitted, or stored only in accord with that
 written license.
  
 The following legend is applicable only to US Government
 contracts under DFARS:
  
                    RESTRICTED RIGHTS LEGEND
  
 Use, duplication or disclosure by the US Government is subject
 to restrictions as set forth in subparagraph (c)(1)(ii) of the
 Rights in Technical Data and Computer Software clause at DFARS
 252.227-7013.
  
 Gaussian, Inc.
 Carnegie Office Park, Building 6, Pittsburgh, PA 15106 USA
  
 The following legend is applicable only to US Government
 contracts under FAR:
  
                    RESTRICTED RIGHTS LEGEND
  
 Use, reproduction and disclosure by the US Government is subject
 to restrictions as set forth in subparagraph (c) of the
 Commercial Computer Software - Restricted Rights clause at FAR
 52.227-19.
  
 Gaussian, Inc.
 Carnegie Office Park, Building 6, Pittsburgh, PA 15106 USA
  
 Cite this work as:
 Gaussian 94, Revision C.3,
 M. J. Frisch, G. W. Trucks, H. B. Schlegel, P. M. W. Gill,
 B. G. Johnson, M. A. Robb, J. R. Cheeseman, T. Keith,
 G. A. Petersson, J. A. Montgomery, K. Raghavachari,
 M. A. Al-Laham, V. G. Zakrzewski, J. V. Ortiz, J. B. Foresman,
 J. Cioslowski, B. B. Stefanov, A. Nanayakkara, M. Challacombe,
 C. Y. Peng, P. Y. Ayala, W. Chen, M. W. Wong, J. L. Andres,
 E. S. Replogle, R. Gomperts, R. L. Martin, D. J. Fox,
 J. S. Binkley, D. J. Defrees, J. Baker, J. P. Stewart,
 M. Head-Gordon, C. Gonzalez, and J. A. Pople,
 Gaussian, Inc., Pittsburgh PA, 1995.
  
 *************************************************
 Gaussian 94:  Sun-SVR4-Unix-G94RevC.3 26-Sep-1995
                    21-Sep-1998
 *************************************************
 %mem=4000000
 ------------------------------------------------------------
 #p rhf/6-311G(2df,p) test gfprint punch=mo gfinput scf=tight
 ------------------------------------------------------------
 1/38=1/1;
 2/12=2,17=6,18=5/2;
 3/5=4,6=6,7=104,11=1,24=11,25=1,30=1/1,2,3;
 4/7=1/1;
 5/5=2,32=2,38=4/2;
 6/7=2,8=2,9=2,10=2,19=1,28=1/1;
 99/5=1,9=1,10=32/99;
 Leave Link    1 at Mon Sep 21 17:40:04 1998, MaxMem=    4000000 cpu:       0.7
 (Enter /user/applications/g94/l101.exe)
 --
 C2
 --
 Symbolic Z-matrix:
    Charge = 0 Multiplicity = 1
 C     0.        0.        -0.62125 
 C     0.        0.        0.62125 
 Leave Link  101 at Mon Sep 21 17:40:05 1998, MaxMem=    4000000 cpu:       0.1
 (Enter /user/applications/g94/l202.exe)
 ------------------------------------------------------------------------
                         Z-MATRIX (ANGSTROMS AND DEGREES)
 CD Cent Atom  N1     Length/X     N2    Alpha/Y     N3     Beta/Z      J
 ------------------------------------------------------------------------
   1   1  C     0   0.000000          0.000000         -0.621254
   2   2  C     0   0.000000          0.000000          0.621254
 ------------------------------------------------------------------------
                  Z-Matrix orientation:
 ----------------------------------------------------------
 Center     Atomic              Coordinates (Angstroms)
 Number     Number             X           Y           Z
 ----------------------------------------------------------
    1          6           0.000000    0.000000   -0.621254
    2          6           0.000000    0.000000    0.621254
 ----------------------------------------------------------
 Stoichiometry    C2
 Framework group  D*H[C*(C.C)]
 Deg. of freedom    1
 Full point group                 D*H     NOp   8
 Largest Abelian subgroup         D2H     NOp   8
 Largest concise Abelian subgroup C2      NOp   2
                   Standard orientation:
 ----------------------------------------------------------
 Center     Atomic              Coordinates (Angstroms)
 Number     Number             X           Y           Z
 ----------------------------------------------------------
    1          6           0.000000    0.000000    0.621254
    2          6           0.000000    0.000000   -0.621254
 ----------------------------------------------------------
 Rotational constants (GHZ):      0.0000000     54.5591368     54.5591368
 Isotopes: C-12,C-12
 Leave Link  202 at Mon Sep 21 17:40:06 1998, MaxMem=    4000000 cpu:       0.2
 (Enter /user/applications/g94/l301.exe)
 Standard basis: 6-311G(2df,p) (5D, 7F)
 ***********************************************************************************************************************************
 *             ATOMIC CENTER             *        ATOMIC ORBITAL       *                     GAUSSIAN FUNCTIONS                    *
 ***********************************************************************************************************************************
 *                                       * FUNCTION    SHELL    SCALE  *                                                           *
 *    ATOM   X-COORD  Y-COORD  Z-COORD   *  NUMBER     TYPE     FACTOR *  EXPONENT    S-COEF      P-COEF      D-COEF      F-COEF   *
 ***********************************************************************************************************************************
 *     C      0.00000  0.00000  1.17400                                                                                            *
+                                                1               1.00                                                               
+                                                                      0.456324D+040.196665D-020.000000D+000.000000D+000.000000D+00 
 *                                                                     0.682024D+030.152306D-010.000000D+000.000000D+000.000000D+00*
 *                                                                     0.154973D+030.761269D-010.000000D+000.000000D+000.000000D+00*
 *                                                                     0.444553D+020.260801D+000.000000D+000.000000D+000.000000D+00*
 *                                                                     0.130290D+020.616462D+000.000000D+000.000000D+000.000000D+00*
 *                                                                     0.182773D+010.221006D+000.000000D+000.000000D+000.000000D+00*
 *                                           2-  5               1.00                                                              *
+                                                                      0.209642D+020.114660D+000.402487D-010.000000D+000.000000D+00 
 *                                                                     0.480331D+010.919999D+000.237594D+000.000000D+000.000000D+00*
 *                                                                     0.145933D+01-.303068D-020.815854D+000.000000D+000.000000D+00*
 *                                           6-  9               1.00                                                              *
+                                                                      0.483456D+000.100000D+010.100000D+010.000000D+000.000000D+00 
 *                                          10- 13               1.00                                                              *
+                                                                      0.145585D+000.100000D+010.100000D+010.000000D+000.000000D+00 
 *                                          14- 18               1.00                                                              *
+                                                                      0.125200D+010.000000D+000.000000D+000.100000D+010.000000D+00 
 *                                          19- 23               1.00                                                              *
+                                                                      0.313000D+000.000000D+000.000000D+000.100000D+010.000000D+00 
 *                                          24- 30               1.00                                                              *
+                                                                      0.800000D+000.000000D+000.000000D+000.000000D+000.100000D+01 
 *---------------------------------------------------------------------------------------------------------------------------------*
 *     C      0.00000  0.00000 -1.17400                                                                                            *
+                                               31               1.00                                                               
+                                                                      0.456324D+040.196665D-020.000000D+000.000000D+000.000000D+00 
 *                                                                     0.682024D+030.152306D-010.000000D+000.000000D+000.000000D+00*
 *                                                                     0.154973D+030.761269D-010.000000D+000.000000D+000.000000D+00*
 *                                                                     0.444553D+020.260801D+000.000000D+000.000000D+000.000000D+00*
 *                                                                     0.130290D+020.616462D+000.000000D+000.000000D+000.000000D+00*
 *                                                                     0.182773D+010.221006D+000.000000D+000.000000D+000.000000D+00*
 *                                          32- 35               1.00                                                              *
+                                                                      0.209642D+020.114660D+000.402487D-010.000000D+000.000000D+00 
 *                                                                     0.480331D+010.919999D+000.237594D+000.000000D+000.000000D+00*
 *                                                                     0.145933D+01-.303068D-020.815854D+000.000000D+000.000000D+00*
 *                                          36- 39               1.00                                                              *
+                                                                      0.483456D+000.100000D+010.100000D+010.000000D+000.000000D+00 
 *                                          40- 43               1.00                                                              *
+                                                                      0.145585D+000.100000D+010.100000D+010.000000D+000.000000D+00 
 *                                          44- 48               1.00                                                              *
+                                                                      0.125200D+010.000000D+000.000000D+000.100000D+010.000000D+00 
 *                                          49- 53               1.00                                                              *
+                                                                      0.313000D+000.000000D+000.000000D+000.100000D+010.000000D+00 
 *                                          54- 60               1.00                                                              *
+                                                                      0.800000D+000.000000D+000.000000D+000.000000D+000.100000D+01 
 ***********************************************************************************************************************************
 Basis set in the form of general basis input:
  1 0
 S    6 1.00
  0.4563240000D+04  0.1966650000D-02
  0.6820240000D+03  0.1523060000D-01
  0.1549730000D+03  0.7612690000D-01
  0.4445530000D+02  0.2608010000D+00
  0.1302900000D+02  0.6164620000D+00
  0.1827730000D+01  0.2210060000D+00
 SP   3 1.00
  0.2096420000D+02  0.1146600000D+00  0.4024870000D-01
  0.4803310000D+01  0.9199990000D+00  0.2375940000D+00
  0.1459330000D+01 -0.3030680000D-02  0.8158540000D+00
 SP   1 1.00
  0.4834560000D+00  0.1000000000D+01  0.1000000000D+01
 SP   1 1.00
  0.1455850000D+00  0.1000000000D+01  0.1000000000D+01
 D    1 1.00
  0.1252000000D+01  0.1000000000D+01
 D    1 1.00
  0.3130000000D+00  0.1000000000D+01
 F    1 1.00
  0.8000000000D+00  0.1000000000D+01
 ****
  2 0
 S    6 1.00
  0.4563240000D+04  0.1966650000D-02
  0.6820240000D+03  0.1523060000D-01
  0.1549730000D+03  0.7612690000D-01
  0.4445530000D+02  0.2608010000D+00
  0.1302900000D+02  0.6164620000D+00
  0.1827730000D+01  0.2210060000D+00
 SP   3 1.00
  0.2096420000D+02  0.1146600000D+00  0.4024870000D-01
  0.4803310000D+01  0.9199990000D+00  0.2375940000D+00
  0.1459330000D+01 -0.3030680000D-02  0.8158540000D+00
 SP   1 1.00
  0.4834560000D+00  0.1000000000D+01  0.1000000000D+01
 SP   1 1.00
  0.1455850000D+00  0.1000000000D+01  0.1000000000D+01
 D    1 1.00
  0.1252000000D+01  0.1000000000D+01
 D    1 1.00
  0.3130000000D+00  0.1000000000D+01
 F    1 1.00
  0.8000000000D+00  0.1000000000D+01
 ****

 There are    13 symmetry adapted basis functions of AG  symmetry.
 There are     3 symmetry adapted basis functions of B1G symmetry.
 There are     7 symmetry adapted basis functions of B2G symmetry.
 There are     7 symmetry adapted basis functions of B3G symmetry.
 There are     3 symmetry adapted basis functions of AU  symmetry.
 There are    13 symmetry adapted basis functions of B1U symmetry.
 There are     7 symmetry adapted basis functions of B2U symmetry.
 There are     7 symmetry adapted basis functions of B3U symmetry.
 Crude estimate of integral set expansion from redundant integrals=1.000.
 Integral buffers will be    262144 words long.
 Raffenetti 1 integral format.
 Two-electron integral symmetry is turned on.
    60 basis functions       86 primitive gaussians
     6 alpha electrons        6 beta electrons
       nuclear repulsion energy        15.3321976230 Hartrees.
 Leave Link  301 at Mon Sep 21 17:40:06 1998, MaxMem=    4000000 cpu:       0.3
 (Enter /user/applications/g94/l302.exe)
 One-electron integrals computed using PRISM.
 One-electron integral symmetry used in STVInt
 The smallest eigenvalue of the overlap matrix is  9.739D-04
 Leave Link  302 at Mon Sep 21 17:40:15 1998, MaxMem=    4000000 cpu:       7.3
 (Enter /user/applications/g94/l303.exe)
 DipDrv:  MaxL=1.
 Leave Link  303 at Mon Sep 21 17:40:19 1998, MaxMem=    4000000 cpu:       2.6
 (Enter /user/applications/g94/l401.exe)
 Projected INDO Guess.
 Initial guess orbital symmetries:
       Occupied  (SGG) (SGU) (SGG) (SGU) (PIU) (PIU)
       Virtual   (SGG) (PIG) (PIG) (SGU) (SGG) (SGG) (PIG) (PIG)
                 (SGG) (SGG) (PIG) (PIG) (SGG) (SGG) (PIG) (PIG)
                 (SGG) (SGU) (PIG) (PIG) (DLTG) (DLTG) (SGU) (PIG)
                 (PIG) (DLTG) (DLTG) (SGU) (PIU) (PIU) (DLTG) (DLTG)
                 (PHIG) (PHIG) (SGU) (PIU) (PIU) (SGU) (SGU) (PIU)
                 (PIU) (SGU) (PIU) (PIU) (DLTU) (DLTU) (PIU) (PIU)
                 (DLTU) (DLTU) (DLTU) (DLTU) (PHIU) (PHIU)
 Leave Link  401 at Mon Sep 21 17:40:25 1998, MaxMem=    4000000 cpu:       4.5
 (Enter /user/applications/g94/l502.exe)
 A Direct SCF calculation will be performed.
 Using DIIS extrapolation.
 IExCor= 0 DFT=F Ex=HF Corr=None ScaHFX= 1.0000 IRadAn=      0
 ScaDFX=  0.0000  0.0000  0.0000  0.0000
 Closed shell SCF:
 Requested convergence on RMS density matrix=1.00D-08 within  64 cycles.
 Requested convergence on MAX density matrix=1.00D-06.
 Integral symmetry usage will be decided dynamically.
 IEnd=     21805 IEndB=     21805 NGot=   4000000 MDV=   3987390
 LenX=   3987390
 Fock matrices will be formed incrementally for  20 cycles.
 Integral accuracy reduced to 1.0D-05 until final iterations.
 
 Cycle   1  Pass 0:
 Petite list used in FoFDir.
 MinBra= 0 MaxBra= 3 MinRaf= 0 MaxRaf= 3.
 IRaf=       0 NMat=   1 IRICut=       1 DoRegI=T DoRafI=F ISym2E= 1 JSym2E=1.
 E=-0.904915305270108D+02
 DIIS: error= 9.86D-02 at cycle   1.
 RMSDP=1.12D-02 MaxDP=1.19D-01
 
 Cycle   2  Pass 0:
 RMSU=  7.67D-03    CP:  7.34D-01
 E=-0.907266240039469D+02 Delta-E=       -0.235093476936
 DIIS: error= 4.75D-03 at cycle   2.
 RMSDP=2.49D-03 MaxDP=5.79D-02
 
 Cycle   3  Pass 0:
 RMSU=  1.44D-03    CP:  6.78D-01  1.15D+00
 E=-0.907304984287648D+02 Delta-E=       -0.003874424818
 DIIS: error= 9.60D-04 at cycle   3.
 Coeff: 0.118D+00-0.112D+01
 RMSDP=9.16D-04 MaxDP=2.00D-02
 
 Cycle   4  Pass 0:
 RMSU=  1.66D-04    CP:  6.57D-01  1.20D+00  1.35D+00
 E=-0.907307115521266D+02 Delta-E=       -0.000213123362
 DIIS: error= 2.89D-04 at cycle   4.
 Coeff: 0.208D-01 0.143D-01-0.104D+01
 RMSDP=1.62D-04 MaxDP=3.94D-03
 
 Cycle   5  Pass 0:
 RMSU=  2.12D-05    CP:  6.54D-01  1.21D+00  1.42D+00  1.13D+00
 E=-0.907307242286007D+02 Delta-E=       -0.000012676474
 DIIS: error= 8.66D-05 at cycle   5.
 Coeff:-0.118D-01 0.884D-01 0.225D-01-0.110D+01
 RMSDP=5.52D-05 MaxDP=1.17D-03
 
 Cycle   6  Pass 0:
 RMSU=  3.73D-06    CP:  6.53D-01  1.21D+00  1.44D+00  1.22D+00  1.25D+00
 E=-0.907307254027316D+02 Delta-E=       -0.000001174131
 DIIS: error= 1.69D-05 at cycle   6.
 Coeff: 0.304D-02-0.248D-01 0.373D-02 0.406D+00-0.139D+01
 RMSDP=5.22D-06 MaxDP=8.47D-05
 
 Initial convergence to 1.0D-05 achieved.  Increase integral accuracy.
 Cycle   7  Pass 1:
 E=-0.907307253343012D+02 Delta-E=        0.000000068430
 DIIS: error= 2.96D-06 at cycle   1.
 RMSDP=5.22D-06 MaxDP=8.47D-05
 
 Cycle   8  Pass 1:
 RMSU=  3.32D-07    CP:  1.00D+00
 E=-0.907307253350165D+02 Delta-E=       -0.000000000715
 DIIS: error= 8.25D-07 at cycle   2.
 Coeff: 0.371D+00-0.137D+01
 RMSDP=1.60D-07 MaxDP=3.81D-06
 
 Cycle   9  Pass 1:
 RMSU=  6.87D-08    CP:  1.00D+00  1.42D+00
 E=-0.907307253351339D+02 Delta-E=       -0.000000000117
 DIIS: error= 1.98D-07 at cycle   3.
 Coeff: 0.103D+00-0.149D+00-0.954D+00
 RMSDP=3.53D-08 MaxDP=6.16D-07
 
 Cycle  10  Pass 1:
 RMSU=  2.48D-08    CP:  1.00D+00  1.46D+00  7.53D-01
 E=-0.907307253351389D+02 Delta-E=       -0.000000000005
 DIIS: error= 3.72D-08 at cycle   4.
 Coeff:-0.473D-01 0.109D+00 0.281D+00-0.134D+01
 RMSDP=2.04D-08 MaxDP=4.82D-07
 
 Cycle  11  Pass 1:
 RMSU=  2.62D-09    CP:  1.00D+00  1.43D+00  6.44D-01  1.59D+00
 E=-0.907307253351374D+02 Delta-E=        0.000000000002
 DIIS: error= 2.94D-09 at cycle   5.
 Coeff: 0.804D-02-0.205D-01-0.419D-01 0.274D+00-0.122D+01
 RMSDP=3.29D-09 MaxDP=7.21D-08
 
 SCF Done:  E(RHF) =  -75.3985277121     A.U. after   11 cycles
             Convg  =    0.3286D-08             -V/T =  2.0001
             S**2   =   0.0000
 KE= 7.539045032647D+01 PE=-2.064516791643D+02 EE= 4.033050350268D+01
 Leave Link  502 at Mon Sep 21 17:43:33 1998, MaxMem=    4000000 cpu:     167.6
 (Enter /user/applications/g94/l601.exe)
 Copying SCF densities to generalized density rwf, ISCF=0 IROHF=0.

 **********************************************************************

            Population analysis using the SCF density.

 **********************************************************************

 Orbital Symmetries:
       Occupied  (SGG) (SGU) (SGG) (SGU) (PIU) (PIU)
       Virtual   (SGG) (PIG) (PIG) (SGU) (SGG) (PIU) (PIU) (SGG)
                 (PIG) (PIG) (DLTG) (DLTG) (SGU) (SGU) (PIU) (PIU)
                 (DLTU) (DLTU) (PIG) (PIG) (SGG) (SGU) (SGG) (DLTG)
                 (DLTG) (PIU) (PIU) (PHIU) (PHIU) (PIU) (PIU) (PIG)
                 (PIG) (PHIG) (PHIG) (SGG) (SGU) (PIG) (PIG) (DLTG)
                 (DLTG) (DLTU) (DLTU) (SGU) (DLTU) (DLTU) (PIU)
                 (PIU) (SGG) (PIG) (PIG) (SGU) (SGG) (SGU)
  The electronic state is 1-SGG.
 Alpha  occ. eigenvalues --  -11.35741 -11.35510  -1.05942  -0.51561  -0.45628
 Alpha  occ. eigenvalues --   -0.45628
 Alpha virt. eigenvalues --   -0.10908   0.16107   0.16107   0.35015   0.50980
 Alpha virt. eigenvalues --    0.52698   0.52698   0.58887   0.65170   0.65170
 Alpha virt. eigenvalues --    0.74236   0.74236   0.79528   0.94220   0.97779
 Alpha virt. eigenvalues --    0.97779   1.06260   1.06260   1.36504   1.36504
 Alpha virt. eigenvalues --    1.38960   1.68338   2.69360   2.84710   2.84710
 Alpha virt. eigenvalues --    2.89011   2.89011   2.93822   2.93822   3.00901
 Alpha virt. eigenvalues --    3.00901   3.05610   3.05610   3.32536   3.32536
 Alpha virt. eigenvalues --    3.35281   3.41048   3.50356   3.50356   3.55661
 Alpha virt. eigenvalues --    3.55661   3.60601   3.60601   3.72532   3.99695
 Alpha virt. eigenvalues --    3.99695   4.00354   4.00354   4.72774   5.24298
 Alpha virt. eigenvalues --    5.24298   5.30650  24.20577  25.94278
          Condensed to atoms (all electrons):
              1          2
  1  C    5.224348   0.775652
  2  C    0.775652   5.224348
 Total atomic charges:
              1
  1  C    0.000000
  2  C    0.000000
 Sum of Mulliken charges=   0.00000
 Atomic charges with hydrogens summed into heavy atoms:
              1
  1  C    0.000000
  2  C    0.000000
 Sum of Mulliken charges=   0.00000
 Electronic spatial extent (au):  <R**2>=    41.6649
 Charge=     0.0000 electrons
 Dipole moment (Debye):
    X=     0.0000    Y=     0.0000    Z=     0.0000  Tot=     0.0000
 Quadrupole moment (Debye-Ang):
   XX=   -12.5334   YY=   -12.5334   ZZ=    -8.7282
   XY=     0.0000   XZ=     0.0000   YZ=     0.0000
 Octapole moment (Debye-Ang**2):
  XXX=     0.0000  YYY=     0.0000  ZZZ=     0.0000  XYY=     0.0000
  XXY=     0.0000  XXZ=     0.0000  XZZ=     0.0000  YZZ=     0.0000
  YYZ=     0.0000  XYZ=     0.0000
 Hexadecapole moment (Debye-Ang**3):
 XXXX=   -14.6503 YYYY=   -14.6503 ZZZZ=   -32.9171 XXXY=     0.0000
 XXXZ=     0.0000 YYYX=     0.0000 YYYZ=     0.0000 ZZZX=     0.0000
 ZZZY=     0.0000 XXYY=    -4.8834 XXZZ=    -8.4133 YYZZ=    -8.4133
 XXYZ=     0.0000 YYXZ=     0.0000 ZZXY=     0.0000
 N-N= 1.533219762304D+01 E-N=-2.064516791368D+02  KE= 7.539045032647D+01
 Symmetry AG   KE= 3.566530926599D+01
 Symmetry B1G  KE= 9.460575783198D-31
 Symmetry B2G  KE=-1.584302095256D-16
 Symmetry B3G  KE= 8.831451581170D-17
 Symmetry AU   KE= 1.444276214560D-30
 Symmetry B1U  KE= 3.520751566292D+01
 Symmetry B2U  KE= 2.258812698783D+00
 Symmetry B3U  KE= 2.258812698783D+00
 Leave Link  601 at Mon Sep 21 17:43:37 1998, MaxMem=    4000000 cpu:       3.7
 (Enter /user/applications/g94/l9999.exe)

 Test job not archived.
 1\1\GINC-CLASS1\SP\RHF\6-311G(2df,p)\C2\JKOB\21-Sep-1998\0\\#P RHF/6-3
 11G(2DF,P) TEST GFPRINT PUNCH=MO GFINPUT SCF=TIGHT\\C2\\0,1\C,0,0.,0.,
 -0.62125409\C,0,0.,0.,0.62125409\\Version=Sun-SVR4-Unix-G94RevC.3\Stat
 e=1-SGG\HF=-75.3985277\RMSD=3.286e-09\Dipole=0.,0.,0.\PG=D*H [C*(C1.C1
 )]\\@


 You can't act like a skunk without someone's getting wind of it.
 -- Lorene Workman
 Job cpu time:  0 days  0 hours  3 minutes  9.8 seconds.
 File lengths (MBytes):  RWF=    5 Int=    0 D2E=    0 Chk=    1 Scr=    1
 Normal termination of Gaussian 94
-rw-r--r--   1 jkob     kmk          181 Sep 21 17:40 c2.inp
-rw-r--r--   1 jkob     kmk        23394 Sep 21 17:43 c2.out
