 Entering Gaussian System, Link 0=/usr/local/Gaussian/g98//g98
 Initial command:
 /usr/local/Gaussian//g98/l1.exe /home/jkob/programs/gauss98/o2/Gau-13106.inp -scrdir=/home/jkob/programs/gauss98/o2/
 Default is to use a total of   2 processors:
                                2 via shared-memory
                                1 via Linda
 Entering Link 1 = /usr/local/Gaussian//g98/l1.exe PID=     13107.
  
 Copyright (c) 1988,1990,1992,1993,1995,1998 Gaussian, Inc.
                  All Rights Reserved.
  
 This is part of the Gaussian(R) 98 program.  It is based on
 the Gaussian 94(TM) system (copyright 1995 Gaussian, Inc.),
 the Gaussian 92(TM) system (copyright 1992 Gaussian, Inc.),
 the Gaussian 90(TM) system (copyright 1990 Gaussian, Inc.),
 the Gaussian 88(TM) system (copyright 1988 Gaussian, Inc.),
 the Gaussian 86(TM) system (copyright 1986 Carnegie Mellon
 University), and the Gaussian 82(TM) system (copyright 1983
 Carnegie Mellon University). Gaussian is a federally registered
 trademark of Gaussian, Inc.
  
 This software contains proprietary and confidential information,
 including trade secrets, belonging to Gaussian, Inc.
  
 This software is provided under written license and may be
 used, copied, transmitted, or stored only in accord with that
 written license.
  
 The following legend is applicable only to US Government
 contracts under DFARS:
  
                    RESTRICTED RIGHTS LEGEND
  
 Use, duplication or disclosure by the US Government is subject
 to restrictions as set forth in subparagraph (c)(1)(ii) of the
 Rights in Technical Data and Computer Software clause at DFARS
 252.227-7013.
  
 Gaussian, Inc.
 Carnegie Office Park, Building 6, Pittsburgh, PA 15106 USA
  
 The following legend is applicable only to US Government
 contracts under FAR:
  
                    RESTRICTED RIGHTS LEGEND
  
 Use, reproduction and disclosure by the US Government is subject
 to restrictions as set forth in subparagraph (c) of the
 Commercial Computer Software - Restricted Rights clause at FAR
 52.227-19.
  
 Gaussian, Inc.
 Carnegie Office Park, Building 6, Pittsburgh, PA 15106 USA
  
  
 ---------------------------------------------------------------
 Warning -- This program may not be used in any manner that
 competes with the business of Gaussian, Inc. or will provide
 assistance to any competitor of Gaussian, Inc.  The licensee
 of this program is prohibited from giving any competitor of
 Gaussian, Inc. access to this program.  By using this program,
 the user acknowledges that Gaussian, Inc. is engaged in the
 business of creating and licensing software in the field of
 computational chemistry and represents and warrants to the
 licensee that it is not a competitor of Gaussian, Inc. and that
 it will not use this program in any manner prohibited above.
 ---------------------------------------------------------------
  

 Cite this work as:
 Gaussian 98, Revision A.7,
 M. J. Frisch, G. W. Trucks, H. B. Schlegel, G. E. Scuseria, 
 M. A. Robb, J. R. Cheeseman, V. G. Zakrzewski, J. A. Montgomery, Jr., 
 R. E. Stratmann, J. C. Burant, S. Dapprich, J. M. Millam, 
 A. D. Daniels, K. N. Kudin, M. C. Strain, O. Farkas, J. Tomasi, 
 V. Barone, M. Cossi, R. Cammi, B. Mennucci, C. Pomelli, C. Adamo, 
 S. Clifford, J. Ochterski, G. A. Petersson, P. Y. Ayala, Q. Cui, 
 K. Morokuma, D. K. Malick, A. D. Rabuck, K. Raghavachari, 
 J. B. Foresman, J. Cioslowski, J. V. Ortiz, A. G. Baboul, 
 B. B. Stefanov, G. Liu, A. Liashenko, P. Piskorz, I. Komaromi, 
 R. Gomperts, R. L. Martin, D. J. Fox, T. Keith, M. A. Al-Laham, 
 C. Y. Peng, A. Nanayakkara, C. Gonzalez, M. Challacombe, 
 P. M. W. Gill, B. Johnson, W. Chen, M. W. Wong, J. L. Andres, 
 C. Gonzalez, M. Head-Gordon, E. S. Replogle, and J. A. Pople, 
 Gaussian, Inc., Pittsburgh PA, 1998.

 *********************************************
 Gaussian 98:  x86-Linux-G98RevA.7 11-Apr-1999
                   4-May-2009 
 *********************************************
 %mem=4000000
 Default route:  MaxDisk=15000MB
 ------------------------------------------------------------
 #p uhf/6-311G(2df,p) test gfprint punch=mo gfinput scf=tight
 ------------------------------------------------------------
 1/38=1/1;
 2/17=6,18=5/2;
 3/5=4,6=6,7=104,11=2,24=11,25=1,30=1/1,2,3;
 4/7=2/1;
 5/5=2,32=2,38=4/2;
 6/7=2,8=2,9=2,10=2,28=1/1;
 99/5=1,9=1,10=32/99;
 Leave Link    1 at Mon May  4 14:20:14 2009, MaxMem=    4000000 cpu:       0.1
 (Enter /usr/local/Gaussian//g98/l101.exe)
 --
 O2
 --
 Symbolic Z-matrix:
 Charge =  0 Multiplicity = 3
 O                     0.        0.       -0.33915 
 O                     0.        0.        0.33915 
 Leave Link  101 at Mon May  4 14:20:14 2009, MaxMem=    4000000 cpu:       0.1
 (Enter /usr/local/Gaussian//g98/l202.exe)
 ------------------------------------------------------------------------
                         Z-MATRIX (ANGSTROMS AND DEGREES)
 CD Cent Atom  N1     Length/X     N2    Alpha/Y     N3     Beta/Z      J
 ------------------------------------------------------------------------
   1   1  O     0   0.000000          0.000000         -0.339150
   2   2  O     0   0.000000          0.000000          0.339150
 ------------------------------------------------------------------------
                         Z-Matrix orientation:                         
 ---------------------------------------------------------------------
 Center     Atomic     Atomic              Coordinates (Angstroms)
 Number     Number      Type              X           Y           Z
 ---------------------------------------------------------------------
    1          8             0        0.000000    0.000000   -0.339150
    2          8             0        0.000000    0.000000    0.339150
 ---------------------------------------------------------------------
 Stoichiometry    O2(3)
 Framework group  D*H[C*(O.O)]
 Deg. of freedom    1
 Full point group                 D*H     NOp   8
 Largest Abelian subgroup         D2H     NOp   8
 Largest concise Abelian subgroup C2      NOp   2
                         Standard orientation:                         
 ---------------------------------------------------------------------
 Center     Atomic     Atomic              Coordinates (Angstroms)
 Number     Number      Type              X           Y           Z
 ---------------------------------------------------------------------
    1          8             0        0.000000    0.000000    0.339150
    2          8             0        0.000000    0.000000   -0.339150
 ---------------------------------------------------------------------
 Rotational constants (GHZ):      0.0000000    137.3480380    137.3480380
 Isotopes: O-16,O-16
 Leave Link  202 at Mon May  4 14:20:14 2009, MaxMem=    4000000 cpu:       0.0
 (Enter /usr/local/Gaussian//g98/l301.exe)
 Standard basis: 6-311G(2df,p) (5D, 7F)
 ***********************************************************************************************************************************
 *             ATOMIC CENTER             *        ATOMIC ORBITAL       *                     GAUSSIAN FUNCTIONS                    *
 ***********************************************************************************************************************************
 *                                       * FUNCTION    SHELL    SCALE  *                                                           *
 *    ATOM   X-COORD  Y-COORD  Z-COORD   *  NUMBER     TYPE     FACTOR *  EXPONENT    S-COEF      P-COEF      D-COEF      F-COEF   *
 ***********************************************************************************************************************************
 *     O      0.00000  0.00000  0.64090                                                                                            *
+                                                1     S         1.00                                                               
+                                                                      0.858850E+040.189515E-020.000000E+000.000000E+000.000000E+00 
 *                                                                     0.129723E+040.143859E-010.000000E+000.000000E+000.000000E+00*
 *                                                                     0.299296E+030.707320E-010.000000E+000.000000E+000.000000E+00*
 *                                                                     0.873771E+020.240001E+000.000000E+000.000000E+000.000000E+00*
 *                                                                     0.256789E+020.594797E+000.000000E+000.000000E+000.000000E+00*
 *                                                                     0.374004E+010.280802E+000.000000E+000.000000E+000.000000E+00*
 *                                           2-  5     SP        1.00                                                              *
+                                                                      0.421175E+020.113889E+000.365114E-010.000000E+000.000000E+00 
 *                                                                     0.962837E+010.920811E+000.237153E+000.000000E+000.000000E+00*
 *                                                                     0.285332E+01-.327447E-020.819702E+000.000000E+000.000000E+00*
 *                                           6-  9     SP        1.00                                                              *
+                                                                      0.905661E+000.100000E+010.100000E+010.000000E+000.000000E+00 
 *                                          10- 13     SP        1.00                                                              *
+                                                                      0.255611E+000.100000E+010.100000E+010.000000E+000.000000E+00 
 *                                          14- 18     5D        1.00                                                              *
+                                                                      0.258400E+010.000000E+000.000000E+000.100000E+010.000000E+00 
 *                                          19- 23     5D        1.00                                                              *
+                                                                      0.646000E+000.000000E+000.000000E+000.100000E+010.000000E+00 
 *                                          24- 30     7F        1.00                                                              *
+                                                                      0.140000E+010.000000E+000.000000E+000.000000E+000.100000E+01 
 *---------------------------------------------------------------------------------------------------------------------------------*
 *     O      0.00000  0.00000 -0.64090                                                                                            *
+                                               31     S         1.00                                                               
+                                                                      0.858850E+040.189515E-020.000000E+000.000000E+000.000000E+00 
 *                                                                     0.129723E+040.143859E-010.000000E+000.000000E+000.000000E+00*
 *                                                                     0.299296E+030.707320E-010.000000E+000.000000E+000.000000E+00*
 *                                                                     0.873771E+020.240001E+000.000000E+000.000000E+000.000000E+00*
 *                                                                     0.256789E+020.594797E+000.000000E+000.000000E+000.000000E+00*
 *                                                                     0.374004E+010.280802E+000.000000E+000.000000E+000.000000E+00*
 *                                          32- 35     SP        1.00                                                              *
+                                                                      0.421175E+020.113889E+000.365114E-010.000000E+000.000000E+00 
 *                                                                     0.962837E+010.920811E+000.237153E+000.000000E+000.000000E+00*
 *                                                                     0.285332E+01-.327447E-020.819702E+000.000000E+000.000000E+00*
 *                                          36- 39     SP        1.00                                                              *
+                                                                      0.905661E+000.100000E+010.100000E+010.000000E+000.000000E+00 
 *                                          40- 43     SP        1.00                                                              *
+                                                                      0.255611E+000.100000E+010.100000E+010.000000E+000.000000E+00 
 *                                          44- 48     5D        1.00                                                              *
+                                                                      0.258400E+010.000000E+000.000000E+000.100000E+010.000000E+00 
 *                                          49- 53     5D        1.00                                                              *
+                                                                      0.646000E+000.000000E+000.000000E+000.100000E+010.000000E+00 
 *                                          54- 60     7F        1.00                                                              *
+                                                                      0.140000E+010.000000E+000.000000E+000.000000E+000.100000E+01 
 ***********************************************************************************************************************************
 Basis set in the form of general basis input:
  1 0
 S    6 1.00
  0.8588500000E+04  0.1895150000E-02
  0.1297230000E+04  0.1438590000E-01
  0.2992960000E+03  0.7073200000E-01
  0.8737710000E+02  0.2400010000E+00
  0.2567890000E+02  0.5947970000E+00
  0.3740040000E+01  0.2808020000E+00
 SP   3 1.00
  0.4211750000E+02  0.1138890000E+00  0.3651140000E-01
  0.9628370000E+01  0.9208110000E+00  0.2371530000E+00
  0.2853320000E+01 -0.3274470000E-02  0.8197020000E+00
 SP   1 1.00
  0.9056610000E+00  0.1000000000E+01  0.1000000000E+01
 SP   1 1.00
  0.2556110000E+00  0.1000000000E+01  0.1000000000E+01
 D    1 1.00
  0.2584000000E+01  0.1000000000E+01
 D    1 1.00
  0.6460000000E+00  0.1000000000E+01
 F    1 1.00
  0.1400000000E+01  0.1000000000E+01
 ****
  2 0
 S    6 1.00
  0.8588500000E+04  0.1895150000E-02
  0.1297230000E+04  0.1438590000E-01
  0.2992960000E+03  0.7073200000E-01
  0.8737710000E+02  0.2400010000E+00
  0.2567890000E+02  0.5947970000E+00
  0.3740040000E+01  0.2808020000E+00
 SP   3 1.00
  0.4211750000E+02  0.1138890000E+00  0.3651140000E-01
  0.9628370000E+01  0.9208110000E+00  0.2371530000E+00
  0.2853320000E+01 -0.3274470000E-02  0.8197020000E+00
 SP   1 1.00
  0.9056610000E+00  0.1000000000E+01  0.1000000000E+01
 SP   1 1.00
  0.2556110000E+00  0.1000000000E+01  0.1000000000E+01
 D    1 1.00
  0.2584000000E+01  0.1000000000E+01
 D    1 1.00
  0.6460000000E+00  0.1000000000E+01
 F    1 1.00
  0.1400000000E+01  0.1000000000E+01
 ****

 There are    13 symmetry adapted basis functions of AG  symmetry.
 There are     3 symmetry adapted basis functions of B1G symmetry.
 There are     7 symmetry adapted basis functions of B2G symmetry.
 There are     7 symmetry adapted basis functions of B3G symmetry.
 There are     3 symmetry adapted basis functions of AU  symmetry.
 There are    13 symmetry adapted basis functions of B1U symmetry.
 There are     7 symmetry adapted basis functions of B2U symmetry.
 There are     7 symmetry adapted basis functions of B3U symmetry.
 Crude estimate of integral set expansion from redundant integrals=1.000.
 Integral buffers will be    262144 words long.
 Raffenetti 2 integral format.
 Two-electron integral symmetry is turned on.
    60 basis functions       86 primitive gaussians
     9 alpha electrons        7 beta electrons
       nuclear repulsion energy        49.9297862381 Hartrees.
 Leave Link  301 at Mon May  4 14:20:14 2009, MaxMem=    4000000 cpu:       0.0
 (Enter /usr/local/Gaussian//g98/l302.exe)
 One-electron integrals computed using PRISM.
 One-electron integral symmetry used in STVInt
 NBasis=    60 RedAO= T  NBF=    13     3     7     7     3    13     7     7
 NBsUse=    60 1.00E-04 NBFU=    13     3     7     7     3    13     7     7
 Leave Link  302 at Mon May  4 14:20:15 2009, MaxMem=    4000000 cpu:       0.4
 (Enter /usr/local/Gaussian//g98/l303.exe)
 DipDrv:  MaxL=1.
 Leave Link  303 at Mon May  4 14:20:15 2009, MaxMem=    4000000 cpu:       0.1
 (Enter /usr/local/Gaussian//g98/l401.exe)
 Projected INDO Guess.
 Initial guess orbital symmetries:
   Alpha Orbitals:
       Occupied  (SGG) (SGU) (SGG) (PIU) (PIU) (SGU) (SGG) (PIG)
                 (PIG)
       Virtual   (SGU) (SGG) (SGG) (SGG) (SGG) (SGG) (DLTG) (SGG)
                 (DLTG) (SGG) (DLTG) (DLTG) (DLTG) (DLTG) (PIG)
                 (PIG) (PIG) (PIG) (PIG) (PHIG) (PIG) (PIG) (PIG)
                 (PIG) (PIG) (PHIG) (DLTU) (DLTU) (DLTU) (SGU)
                 (SGU) (SGU) (SGU) (SGU) (SGU) (DLTU) (SGU) (DLTU)
                 (DLTU) (PIU) (PIU) (PIU) (PIU) (PIU) (PHIU) (PIU)
                 (PIU) (PIU) (PIU) (PIU) (PHIU)
   Beta Orbitals:
       Occupied  (SGG) (SGU) (SGG) (PIU) (PIU) (SGU) (SGG)
       Virtual   (PIG) (PIG) (SGU) (SGG) (SGG) (SGG) (SGG) (SGG)
                 (DLTG) (SGG) (DLTG) (SGG) (DLTG) (DLTG) (DLTG)
                 (DLTG) (PIG) (PIG) (PIG) (PIG) (PIG) (PHIG) (PIG)
                 (PIG) (PIG) (PIG) (PIG) (PHIG) (DLTU) (DLTU) (DLTU)
                 (SGU) (SGU) (SGU) (SGU) (SGU) (SGU) (DLTU) (SGU)
                 (DLTU) (DLTU) (PIU) (PIU) (PIU) (PIU) (PIU) (PHIU)
                 (PIU) (PIU) (PIU) (PIU) (PIU) (PHIU)
 <S**2> of initial guess= 2.0031
 Leave Link  401 at Mon May  4 14:20:16 2009, MaxMem=    4000000 cpu:       0.2
 (Enter /usr/local/Gaussian//g98/l502.exe)
 IExCor=   0 DFT=F Ex=HF Corr=None ScaHFX= 1.0000
 ScaDFX=  0.0000  0.0000  0.0000  0.0000
 IRadAn=      0 IRanWt=     -1 IRanGd=            0 ICorTp=0
 Using DIIS extrapolation.
 UHF open shell SCF:
 Requested convergence on RMS density matrix=1.00E-08 within  64 cycles.
 Requested convergence on MAX density matrix=1.00E-06.
 Integral symmetry usage will be decided dynamically.
 IEnd=     20922 IEndB=     20922 NGot=   4000000 MDV=   3988273
 LenX=   3988273
 Fock matrices will be formed incrementally for  20 cycles.
 Integral accuracy reduced to 1.0E-05 until final iterations.

 Cycle   1  Pass 0  IDiag 1:
 Petite list used in FoFDir.
 MinBra= 0 MaxBra= 3 Meth= 1.
 IRaf=       0 NMat=   1 IRICut=       1 DoRegI=T DoRafI=F ISym2E= 1 JSym2E=1.
 E=-0.196222042332255E+03
 DIIS: error= 9.57E-01 at cycle   1.
 T= 3000. Gap= 0.901 NK=0 IS=    1 IE=   60
          NO(<0.9)=   0  NV(>0.1)=   0   9.00e < EF 0.00e >EF  Err=0.0E+00
 T= 3000. Gap= 1.251 NK=0 IS=    1 IE=   60
          NO(<0.9)=   0  NV(>0.1)=   0   7.00e < EF 0.00e >EF  Err=0.0E+00
 RMSDP=3.59E-02 MaxDP=8.37E-01

 Cycle   2  Pass 0  IDiag 1:
 RMSU=  1.99E-02    CP:  5.51E-01
 E=-0.197700665072896E+03 Delta-E=       -1.478622740641
 DIIS: error= 1.77E-01 at cycle   2.
 Coeff:-0.552E-01-0.945E+00
 T= 2700. Gap= 0.748 NK=0 IS=    1 IE=   60
          NO(<0.9)=   0  NV(>0.1)=   0   9.00e < EF 0.00e >EF  Err=1.9E-12
 T= 2700. Gap= 1.221 NK=0 IS=    1 IE=   60
          NO(<0.9)=   0  NV(>0.1)=   0   7.00e < EF 0.00e >EF  Err=0.0E+00
 RMSDP=1.80E-02 MaxDP=3.68E-01

 Cycle   3  Pass 0  IDiag 1:
 RMSU=  1.08E-02    CP:  4.03E-01  1.53E+00
 E=-0.197786416142344E+03 Delta-E=       -0.085751069448
 DIIS: error= 6.76E-02 at cycle   3.
 Coeff: 0.300E-01-0.171E+00-0.859E+00
 T= 2400. Gap= 0.820 NK=0 IS=    1 IE=   60
          NO(<0.9)=   0  NV(>0.1)=   0   9.00e < EF 0.00e >EF  Err=0.0E+00
 T= 2400. Gap= 1.252 NK=0 IS=    1 IE=   60
          NO(<0.9)=   0  NV(>0.1)=   0   7.00e < EF 0.00e >EF  Err=0.0E+00
 RMSDP=2.01E-03 MaxDP=5.45E-02

 Cycle   4  Pass 0  IDiag 1:
 RMSU=  1.48E-03    CP:  4.20E-01  1.56E+00  1.05E+00
 E=-0.197797096696659E+03 Delta-E=       -0.010680554315
 DIIS: error= 1.26E-02 at cycle   4.
 Coeff:-0.427E-02 0.544E-01 0.135E+00-0.119E+01
 T= 2100. Gap= 0.810 NK=0 IS=    1 IE=   60
          NO(<0.9)=   0  NV(>0.1)=   0   9.00e < EF 0.00e >EF  Err=0.0E+00
 T= 2100. Gap= 1.254 NK=0 IS=    1 IE=   60
          NO(<0.9)=   0  NV(>0.1)=   0   7.00e < EF 0.00e >EF  Err=0.0E+00
 RMSDP=1.94E-03 MaxDP=5.32E-02

 Cycle   5  Pass 0  IDiag 1:
 RMSU=  6.57E-04    CP:  4.26E-01  1.61E+00  1.18E+00  1.38E+00
 E=-0.197798027605713E+03 Delta-E=       -0.000930909054
 DIIS: error= 3.53E-03 at cycle   5.
 Coeff: 0.520E-03-0.169E-01 0.630E-03 0.500E+00-0.148E+01
 T= 1453. Gap= 0.808 NK=0 IS=    1 IE=   60
          NO(<0.9)=   0  NV(>0.1)=   0   9.00e < EF 0.00e >EF  Err=0.0E+00
 T= 1453. Gap= 1.258 NK=0 IS=    1 IE=   60
          NO(<0.9)=   0  NV(>0.1)=   0   7.00e < EF 0.00e >EF  Err=0.0E+00
 RMSDP=8.48E-04 MaxDP=1.94E-02

 Cycle   6  Pass 0  IDiag 1:
 RMSU=  7.08E-05    CP:  4.32E-01  1.62E+00  1.22E+00  1.52E+00  1.72E+00
 E=-0.197798140821484E+03 Delta-E=       -0.000113215770
 DIIS: error= 6.55E-04 at cycle   6.
 Coeff: 0.138E-03 0.806E-04-0.880E-02-0.567E-01 0.348E+00-0.128E+01
 RMSDP=1.29E-04 MaxDP=4.05E-03

 Cycle   7  Pass 0  IDiag 1:
 RMSU=  1.91E-05    CP:  4.33E-01  1.62E+00  1.22E+00  1.50E+00  1.89E+00
                    CP:  1.43E+00
 E=-0.197798143801813E+03 Delta-E=       -0.000002980329
 DIIS: error= 1.34E-04 at cycle   7.
 Coeff:-0.545E-04 0.846E-03 0.226E-02-0.105E-01-0.148E-01 0.310E+00
 Coeff:-0.129E+01
 RMSDP=2.32E-05 MaxDP=7.23E-04

 Cycle   8  Pass 0  IDiag 1:
 RMSU=  1.80E-06    CP:  4.33E-01  1.62E+00  1.22E+00  1.50E+00  1.91E+00
                    CP:  1.53E+00  1.47E+00
 E=-0.197798143918000E+03 Delta-E=       -0.000000116188
 DIIS: error= 2.62E-05 at cycle   8.
 Coeff: 0.629E-05-0.143E-03-0.341E-03 0.289E-02-0.318E-02-0.404E-01
 Coeff: 0.314E+00-0.127E+01
 RMSDP=3.40E-06 MaxDP=1.15E-04

 Initial convergence to 1.0E-05 achieved.  Increase integral accuracy.
 Cycle   9  Pass 1  IDiag 1:
 E=-0.197798143292946E+03 Delta-E=        0.000000625055
 DIIS: error= 2.86E-06 at cycle   1.
 RMSDP=3.40E-06 MaxDP=1.15E-04

 Cycle  10  Pass 1  IDiag 1:
 RMSU=  2.18E-06    CP:  1.00E+00
 E=-0.197798143292965E+03 Delta-E=       -0.000000000019
 DIIS: error= 4.33E-07 at cycle   2.
 Coeff: 0.141E+00-0.114E+01
 RMSDP=3.07E-07 MaxDP=1.01E-05

 Cycle  11  Pass 1  IDiag 1:
 RMSU=  2.11E-08    CP:  1.00E+00  1.13E+00
 E=-0.197798143292966E+03 Delta-E=       -0.000000000001
 DIIS: error= 1.05E-07 at cycle   3.
 Coeff:-0.118E-01 0.230E+00-0.122E+01
 RMSDP=1.65E-08 MaxDP=3.89E-07

 Cycle  12  Pass 1  IDiag 1:
 RMSU=  9.82E-09    CP:  1.00E+00  1.13E+00  1.26E+00
 E=-0.197798143292966E+03 Delta-E=        0.000000000000
 DIIS: error= 4.71E-08 at cycle   4.
 Coeff:-0.116E-01 0.119E+00-0.202E+00-0.905E+00
 RMSDP=5.84E-09 MaxDP=1.72E-07

 SCF Done:  E(UHF) =  -147.868357055     A.U. after   12 cycles
             Convg  =    0.5841E-08             -V/T =  1.9412
             S**2   =   2.0055
 KE= 1.571128901969E+02 PE=-4.563991222857E+02 EE= 1.014880887958E+02
 Annihilation of the first spin contaminant:
 S**2 before annihilation     2.0055,   after     2.0000
 Leave Link  502 at Mon May  4 14:20:27 2009, MaxMem=    4000000 cpu:       7.6
 (Enter /usr/local/Gaussian//g98/l601.exe)
 Copying SCF densities to generalized density rwf, ISCF=1 IROHF=0.

 **********************************************************************

            Population analysis using the SCF density.

 **********************************************************************

 Orbital Symmetries:
   Alpha Orbitals:
       Occupied  (SGG) (SGU) (SGG) (PIU) (PIU) (SGU) (SGG) (PIG)
                 (PIG)
       Virtual   (SGU) (PIU) (PIU) (SGG) (SGG) (PIG) (PIG) (DLTG)
                 (DLTG) (SGU) (PIU) (PIU) (SGU) (DLTU) (DLTU) (SGG)
                 (PIG) (PIG) (SGU) (PIU) (PIU) (PHIU) (PHIU) (SGG)
                 (DLTG) (DLTG) (SGU) (PIG) (PIG) (PHIG) (PHIG)
                 (PIU) (PIU) (DLTU) (DLTU) (PIG) (PIG) (SGG) (DLTG)
                 (DLTG) (SGU) (PIU) (PIU) (SGG) (DLTU) (DLTU) (PIG)
                 (PIG) (SGU) (SGG) (SGU)
   Beta Orbitals:
       Occupied  (SGG) (SGU) (SGG) (PIU) (PIU) (SGG) (SGU)
       Virtual   (PIG) (PIG) (SGU) (SGG) (PIU) (PIU) (SGG) (PIG)
                 (PIG) (DLTG) (DLTG) (SGU) (PIU) (PIU) (SGU) (DLTU)
                 (DLTU) (SGG) (PIG) (PIG) (SGU) (PIU) (PIU) (PHIU)
                 (PHIU) (SGG) (DLTG) (DLTG) (SGU) (PIG) (PIG) (PHIG)
                 (PHIG) (PIU) (PIU) (DLTU) (DLTU) (SGG) (PIG) (PIG)
                 (DLTG) (DLTG) (SGU) (PIU) (PIU) (SGG) (DLTU) (DLTU)
                 (PIG) (PIG) (SGU) (SGG) (SGU)
  The electronic state is 3-SGG.
 Alpha  occ. eigenvalues --  -20.75702 -20.70067  -2.36957  -1.27367  -1.27367
 Alpha  occ. eigenvalues --   -1.01048  -0.97954  -0.14808  -0.14808
 Alpha virt. eigenvalues --    0.65942   0.69500   0.69500   0.71952   0.97162
 Alpha virt. eigenvalues --    0.98752   0.98752   1.34137   1.34137   1.39637
 Alpha virt. eigenvalues --    2.02541   2.02541   2.08298   2.10532   2.10532
 Alpha virt. eigenvalues --    2.21279   2.65625   2.65625   4.15987   4.56744
 Alpha virt. eigenvalues --    4.56744   4.79619   4.79619   4.88611   5.17522
 Alpha virt. eigenvalues --    5.17522   5.68075   5.71924   5.71924   6.01379
 Alpha virt. eigenvalues --    6.01379   6.30338   6.30338   6.42705   6.42705
 Alpha virt. eigenvalues --    6.45959   6.45959   6.48173   6.95217   6.95217
 Alpha virt. eigenvalues --    7.11808   7.91325   7.91325   8.36758   8.53666
 Alpha virt. eigenvalues --    8.53666  11.67799  11.67799  12.38682  52.93692
 Alpha virt. eigenvalues --   54.46744
  Beta  occ. eigenvalues --  -20.72285 -20.66432  -2.32578  -1.11527  -1.11527
  Beta  occ. eigenvalues --   -0.87772  -0.82808
  Beta virt. eigenvalues --    0.43110   0.43110   0.68272   0.72943   0.73288
  Beta virt. eigenvalues --    0.73288   1.01108   1.11931   1.11931   1.39096
  Beta virt. eigenvalues --    1.39096   1.44963   2.11509   2.11509   2.14559
  Beta virt. eigenvalues --    2.21244   2.21244   2.22562   2.72228   2.72228
  Beta virt. eigenvalues --    4.21085   4.61768   4.61768   4.83444   4.83444
  Beta virt. eigenvalues --    4.91560   5.20317   5.20317   5.70572   5.77634
  Beta virt. eigenvalues --    5.77634   6.07788   6.07788   6.37132   6.37132
  Beta virt. eigenvalues --    6.50630   6.50630   6.51861   6.52207   6.52207
  Beta virt. eigenvalues --    7.04240   7.04240   7.15068   7.94986   7.94986
  Beta virt. eigenvalues --    8.39240   8.60257   8.60257  11.71981  11.71981
  Beta virt. eigenvalues --   12.40523  52.95521  54.48587
          Condensed to atoms (all electrons):
              1          2
  1  O   10.159477  -2.159477
  2  O   -2.159477  10.159477
 Total atomic charges:
              1
  1  O    0.000000
  2  O    0.000000
 Sum of Mulliken charges=   0.00000
 Atomic charges with hydrogens summed into heavy atoms:
              1
  1  O    0.000000
  2  O    0.000000
 Sum of Mulliken charges=   0.00000
          Atomic-Atomic Spin Densities.
              1          2
  1  O    3.980372  -2.980372
  2  O   -2.980372   3.980372
 Total atomic spin densities:
              1
  1  O    1.000000
  2  O    1.000000
 Sum of Mulliken spin densities=   2.00000
                       Isotropic Fermi Contact Couplings
     Atom                 a.u.       MegaHertz       Gauss      10(-4) cm-1
   1  O(17)             -0.00433       1.31317       0.46857       0.43803
   2  O(17)             -0.00433       1.31317       0.46857       0.43803
 Electronic spatial extent (au):  <R**2>=    27.7662
 Charge=     0.0000 electrons
 Dipole moment (Debye):
    X=     0.0000    Y=     0.0000    Z=     0.0000  Tot=     0.0000
 Quadrupole moment (Debye-Ang):
   XX=    -8.7785   YY=    -8.7785   ZZ=   -10.9502
   XY=     0.0000   XZ=     0.0000   YZ=     0.0000
 Octapole moment (Debye-Ang**2):
  XXX=     0.0000  YYY=     0.0000  ZZZ=     0.0000  XYY=     0.0000
  XXY=     0.0000  XXZ=     0.0000  XZZ=     0.0000  YZZ=     0.0000
  YYZ=     0.0000  XYZ=     0.0000
 Hexadecapole moment (Debye-Ang**3):
 XXXX=    -5.5481 YYYY=    -5.5481 ZZZZ=   -14.7465 XXXY=     0.0000
 XXXZ=     0.0000 YYYX=     0.0000 YYYZ=     0.0000 ZZZX=     0.0000
 ZZZY=     0.0000 XXYY=    -1.8494 XXZZ=    -3.8122 YYZZ=    -3.8122
 XXYZ=     0.0000 YYXZ=     0.0000 ZZXY=     0.0000
 N-N= 4.992978623812E+01 E-N=-4.563991226928E+02  KE= 1.571128901969E+02
 Symmetry AG   KE= 3.756666068322E+01
 Symmetry B1G  KE= 1.608145634769E-33
 Symmetry B2G  KE= 2.752434490515E+00
 Symmetry B3G  KE= 2.752434490515E+00
 Symmetry AU   KE= 4.439652657048E-32
 Symmetry B1U  KE= 3.239673262780E+01
 Symmetry B2U  KE= 2.984555532707E+00
 Symmetry B3U  KE= 2.984555532707E+00
 Leave Link  601 at Mon May  4 14:20:27 2009, MaxMem=    4000000 cpu:       0.1
 (Enter /usr/local/Gaussian//g98/l9999.exe)

 Test job not archived.
 1\1\GINC-FERM\SP\UHF\6-311G(2df,p)\O2(3)\JKOB\04-May-2009\0\\#P UHF/6-
 311G(2DF,P) TEST GFPRINT PUNCH=MO GFINPUT SCF=TIGHT\\O2\\0,3\O,0,0.,0.
 ,-0.3391496989\O,0,0.,0.,0.3391496989\\Version=x86-Linux-G98RevA.7\Sta
 te=3-SGG\HF=-147.8683571\S2=2.005522\S2-1=0.\S2A=2.000016\RMSD=5.841e-
 09\Dipole=0.,0.,0.\PG=D*H [C*(O1.O1)]\\@


 REVOLUTIONS HAVE NEVER LIGHTENED THE BURDEN OF TYRANNY:
 THEY HAVE MERELY SHIFTED IT TO OTHER SHOULDERS.
                                   -- G. B. SHAW (1903)
 Job cpu time:  0 days  0 hours  0 minutes  9.1 seconds.
 File lengths (MBytes):  RWF=   10 Int=    0 D2E=    0 Chk=    6 Scr=    1
 Normal termination of Gaussian 98.
-rw-r--r--  1 jkob kis   191 maj  4 14:20 o2.inp
-rw-r--r--  1 jkob kis 29804 maj  4 14:20 o2.out
