 Entering Gaussian System, Link 0=/appl/chem/G16RevA.03/g16/g16
 Initial command:
 /appl/chem/G16RevA.03/g16/l1.exe "/wrk/slehtola/18255858.GAUSS_SCRDIR/Gau-22140.inp" -scrdir="/wrk/slehtola/18255858.GAUSS_SCRDIR/"
 Entering Link 1 = /appl/chem/G16RevA.03/g16/l1.exe PID=     22144.
  
 Copyright (c) 1988,1990,1992,1993,1995,1998,2003,2009,2016,
            Gaussian, Inc.  All Rights Reserved.
  
 This is part of the Gaussian(R) 16 program.  It is based on
 the Gaussian(R) 09 system (copyright 2009, Gaussian, Inc.),
 the Gaussian(R) 03 system (copyright 2003, Gaussian, Inc.),
 the Gaussian(R) 98 system (copyright 1998, Gaussian, Inc.),
 the Gaussian(R) 94 system (copyright 1995, Gaussian, Inc.),
 the Gaussian 92(TM) system (copyright 1992, Gaussian, Inc.),
 the Gaussian 90(TM) system (copyright 1990, Gaussian, Inc.),
 the Gaussian 88(TM) system (copyright 1988, Gaussian, Inc.),
 the Gaussian 86(TM) system (copyright 1986, Carnegie Mellon
 University), and the Gaussian 82(TM) system (copyright 1983,
 Carnegie Mellon University). Gaussian is a federally registered
 trademark of Gaussian, Inc.
  
 This software contains proprietary and confidential information,
 including trade secrets, belonging to Gaussian, Inc.
  
 This software is provided under written license and may be
 used, copied, transmitted, or stored only in accord with that
 written license.
  
 The following legend is applicable only to US Government
 contracts under FAR:
  
                    RESTRICTED RIGHTS LEGEND
  
 Use, reproduction and disclosure by the US Government is
 subject to restrictions as set forth in subparagraphs (a)
 and (c) of the Commercial Computer Software - Restricted
 Rights clause in FAR 52.227-19.
  
 Gaussian, Inc.
 340 Quinnipiac St., Bldg. 40, Wallingford CT 06492
  
  
 ---------------------------------------------------------------
 Warning -- This program may not be used in any manner that
 competes with the business of Gaussian, Inc. or will provide
 assistance to any competitor of Gaussian, Inc.  The licensee
 of this program is prohibited from giving any competitor of
 Gaussian, Inc. access to this program.  By using this program,
 the user acknowledges that Gaussian, Inc. is engaged in the
 business of creating and licensing software in the field of
 computational chemistry and represents and warrants to the
 licensee that it is not a competitor of Gaussian, Inc. and that
 it will not use this program in any manner prohibited above.
 ---------------------------------------------------------------
  

 Cite this work as:
 Gaussian 16, Revision A.03,
 M. J. Frisch, G. W. Trucks, H. B. Schlegel, G. E. Scuseria, 
 M. A. Robb, J. R. Cheeseman, G. Scalmani, V. Barone, 
 G. A. Petersson, H. Nakatsuji, X. Li, M. Caricato, A. V. Marenich, 
 J. Bloino, B. G. Janesko, R. Gomperts, B. Mennucci, H. P. Hratchian, 
 J. V. Ortiz, A. F. Izmaylov, J. L. Sonnenberg, D. Williams-Young, 
 F. Ding, F. Lipparini, F. Egidi, J. Goings, B. Peng, A. Petrone, 
 T. Henderson, D. Ranasinghe, V. G. Zakrzewski, J. Gao, N. Rega, 
 G. Zheng, W. Liang, M. Hada, M. Ehara, K. Toyota, R. Fukuda, 
 J. Hasegawa, M. Ishida, T. Nakajima, Y. Honda, O. Kitao, H. Nakai, 
 T. Vreven, K. Throssell, J. A. Montgomery, Jr., J. E. Peralta, 
 F. Ogliaro, M. J. Bearpark, J. J. Heyd, E. N. Brothers, K. N. Kudin, 
 V. N. Staroverov, T. A. Keith, R. Kobayashi, J. Normand, 
 K. Raghavachari, A. P. Rendell, J. C. Burant, S. S. Iyengar, 
 J. Tomasi, M. Cossi, J. M. Millam, M. Klene, C. Adamo, R. Cammi, 
 J. W. Ochterski, R. L. Martin, K. Morokuma, O. Farkas, 
 J. B. Foresman, and D. J. Fox, Gaussian, Inc., Wallingford CT, 2016.
 
 ******************************************
 Gaussian 16:  ES64L-G16RevA.03 25-Dec-2016
                 2-Feb-2018 
 ******************************************
 -------------------------------------------------------------
 #p rohf/6-311G(2df,p) test gfprint punch=mo gfinput scf=tight
 -------------------------------------------------------------
 1/38=1,172=1/1;
 2/12=2,17=6,18=5,40=1/2;
 3/5=4,6=6,7=104,11=2,24=110,25=1,30=1,116=101/1,2,3;
 4//1;
 5/5=2,32=2,38=5/2;
 6/7=2,8=2,9=2,10=2,28=1/1;
 99/5=1,9=1,10=32/99;
 Leave Link    1 at Fri Feb  2 17:13:46 2018, MaxMem=           0 cpu:               0.1 elap:               0.4
 (Enter /appl/chem/G16RevA.03/g16/l101.exe)
 --
 O2
 --
 Symbolic Z-matrix:
 Charge =  0 Multiplicity = 3
 O                     0.        0.       -0.60376 
 O                     0.        0.        0.60376 
 
 ITRead=  0  0
 MicOpt= -1 -1
 NAtoms=      2 NQM=        2 NQMF=       0 NMMI=      0 NMMIF=      0
                NMic=       0 NMicF=      0.
                    Isotopes and Nuclear Properties:
 (Nuclear quadrupole moments (NQMom) in fm**2, nuclear magnetic moments (NMagM)
  in nuclear magnetons)

  Atom         1           2
 IAtWgt=          16          16
 AtmWgt=  15.9949146  15.9949146
 NucSpn=           0           0
 AtZEff=  -0.0000000  -0.0000000
 NQMom=    0.0000000   0.0000000
 NMagM=    0.0000000   0.0000000
 AtZNuc=   8.0000000   8.0000000
 Leave Link  101 at Fri Feb  2 17:13:48 2018, MaxMem=   104857600 cpu:               0.2 elap:               0.9
 (Enter /appl/chem/G16RevA.03/g16/l202.exe)
                          Input orientation:                          
 ---------------------------------------------------------------------
 Center     Atomic      Atomic             Coordinates (Angstroms)
 Number     Number       Type             X           Y           Z
 ---------------------------------------------------------------------
      1          8           0        0.000000    0.000000   -0.603760
      2          8           0        0.000000    0.000000    0.603760
 ---------------------------------------------------------------------
 Stoichiometry    O2(3)
 Framework group  D*H[C*(O.O)]
 Deg. of freedom     1
 Full point group                 D*H     NOp   8
 Largest Abelian subgroup         D2H     NOp   8
 Largest concise Abelian subgroup C2      NOp   2
                         Standard orientation:                         
 ---------------------------------------------------------------------
 Center     Atomic      Atomic             Coordinates (Angstroms)
 Number     Number       Type             X           Y           Z
 ---------------------------------------------------------------------
      1          8           0        0.000000    0.000000    0.603760
      2          8           0        0.000000    0.000000   -0.603760
 ---------------------------------------------------------------------
 Rotational constants (GHZ):           0.0000000          43.3387722          43.3387722
 Leave Link  202 at Fri Feb  2 17:13:49 2018, MaxMem=   104857600 cpu:               0.0 elap:               0.7
 (Enter /appl/chem/G16RevA.03/g16/l301.exe)
 Standard basis: 6-311G(2df,p) (5D, 7F)
 Ernie: Thresh=  0.10000D-02 Tol=  0.10000D-05 Strict=F.
 AO basis set in the form of general basis input (Overlap normalization):
      1 0
 S   6 1.00       0.000000000000
      0.8588500000D+04  0.1895150083D-02
      0.1297230000D+04  0.1438590063D-01
      0.2992960000D+03  0.7073200310D-01
      0.8737710000D+02  0.2400010105D+00
      0.2567890000D+02  0.5947970261D+00
      0.3740040000D+01  0.2808020123D+00
 SP   3 1.00       0.000000000000
      0.4211750000D+02  0.1138890124D+00  0.3651139738D-01
      0.9628370000D+01  0.9208111006D+00  0.2371529830D+00
      0.2853320000D+01 -0.3274470358D-02  0.8197019412D+00
 SP   1 1.00       0.000000000000
      0.9056610000D+00  0.1000000000D+01  0.1000000000D+01
 SP   1 1.00       0.000000000000
      0.2556110000D+00  0.1000000000D+01  0.1000000000D+01
 D   1 1.00       0.000000000000
      0.2584000000D+01  0.1000000000D+01
 D   1 1.00       0.000000000000
      0.6460000000D+00  0.1000000000D+01
 F   1 1.00       0.000000000000
      0.1400000000D+01  0.1000000000D+01
 ****
      2 0
 S   6 1.00       0.000000000000
      0.8588500000D+04  0.1895150083D-02
      0.1297230000D+04  0.1438590063D-01
      0.2992960000D+03  0.7073200310D-01
      0.8737710000D+02  0.2400010105D+00
      0.2567890000D+02  0.5947970261D+00
      0.3740040000D+01  0.2808020123D+00
 SP   3 1.00       0.000000000000
      0.4211750000D+02  0.1138890124D+00  0.3651139738D-01
      0.9628370000D+01  0.9208111006D+00  0.2371529830D+00
      0.2853320000D+01 -0.3274470358D-02  0.8197019412D+00
 SP   1 1.00       0.000000000000
      0.9056610000D+00  0.1000000000D+01  0.1000000000D+01
 SP   1 1.00       0.000000000000
      0.2556110000D+00  0.1000000000D+01  0.1000000000D+01
 D   1 1.00       0.000000000000
      0.2584000000D+01  0.1000000000D+01
 D   1 1.00       0.000000000000
      0.6460000000D+00  0.1000000000D+01
 F   1 1.00       0.000000000000
      0.1400000000D+01  0.1000000000D+01
 ****

 AO basis set (Overlap normalization):
 Atom O1       Shell     1 S   6     bf    1 -     1          0.000000000000          0.000000000000          1.140941044967
      0.8588500000D+04  0.1895150083D-02
      0.1297230000D+04  0.1438590063D-01
      0.2992960000D+03  0.7073200310D-01
      0.8737710000D+02  0.2400010105D+00
      0.2567890000D+02  0.5947970261D+00
      0.3740040000D+01  0.2808020123D+00
 Atom O1       Shell     2 SP   3    bf    2 -     5          0.000000000000          0.000000000000          1.140941044967
      0.4211750000D+02  0.1138890124D+00  0.3651139738D-01
      0.9628370000D+01  0.9208111006D+00  0.2371529830D+00
      0.2853320000D+01 -0.3274470358D-02  0.8197019412D+00
 Atom O1       Shell     3 SP   1    bf    6 -     9          0.000000000000          0.000000000000          1.140941044967
      0.9056610000D+00  0.1000000000D+01  0.1000000000D+01
 Atom O1       Shell     4 SP   1    bf   10 -    13          0.000000000000          0.000000000000          1.140941044967
      0.2556110000D+00  0.1000000000D+01  0.1000000000D+01
 Atom O1       Shell     5 D   1     bf   14 -    18          0.000000000000          0.000000000000          1.140941044967
      0.2584000000D+01  0.1000000000D+01
 Atom O1       Shell     6 D   1     bf   19 -    23          0.000000000000          0.000000000000          1.140941044967
      0.6460000000D+00  0.1000000000D+01
 Atom O1       Shell     7 F   1     bf   24 -    30          0.000000000000          0.000000000000          1.140941044967
      0.1400000000D+01  0.1000000000D+01
 Atom O2       Shell     8 S   6     bf   31 -    31          0.000000000000          0.000000000000         -1.140941044967
      0.8588500000D+04  0.1895150083D-02
      0.1297230000D+04  0.1438590063D-01
      0.2992960000D+03  0.7073200310D-01
      0.8737710000D+02  0.2400010105D+00
      0.2567890000D+02  0.5947970261D+00
      0.3740040000D+01  0.2808020123D+00
 Atom O2       Shell     9 SP   3    bf   32 -    35          0.000000000000          0.000000000000         -1.140941044967
      0.4211750000D+02  0.1138890124D+00  0.3651139738D-01
      0.9628370000D+01  0.9208111006D+00  0.2371529830D+00
      0.2853320000D+01 -0.3274470358D-02  0.8197019412D+00
 Atom O2       Shell    10 SP   1    bf   36 -    39          0.000000000000          0.000000000000         -1.140941044967
      0.9056610000D+00  0.1000000000D+01  0.1000000000D+01
 Atom O2       Shell    11 SP   1    bf   40 -    43          0.000000000000          0.000000000000         -1.140941044967
      0.2556110000D+00  0.1000000000D+01  0.1000000000D+01
 Atom O2       Shell    12 D   1     bf   44 -    48          0.000000000000          0.000000000000         -1.140941044967
      0.2584000000D+01  0.1000000000D+01
 Atom O2       Shell    13 D   1     bf   49 -    53          0.000000000000          0.000000000000         -1.140941044967
      0.6460000000D+00  0.1000000000D+01
 Atom O2       Shell    14 F   1     bf   54 -    60          0.000000000000          0.000000000000         -1.140941044967
      0.1400000000D+01  0.1000000000D+01
 There are    16 symmetry adapted cartesian basis functions of AG  symmetry.
 There are     3 symmetry adapted cartesian basis functions of B1G symmetry.
 There are     8 symmetry adapted cartesian basis functions of B2G symmetry.
 There are     8 symmetry adapted cartesian basis functions of B3G symmetry.
 There are     3 symmetry adapted cartesian basis functions of AU  symmetry.
 There are    16 symmetry adapted cartesian basis functions of B1U symmetry.
 There are     8 symmetry adapted cartesian basis functions of B2U symmetry.
 There are     8 symmetry adapted cartesian basis functions of B3U symmetry.
 There are    13 symmetry adapted basis functions of AG  symmetry.
 There are     3 symmetry adapted basis functions of B1G symmetry.
 There are     7 symmetry adapted basis functions of B2G symmetry.
 There are     7 symmetry adapted basis functions of B3G symmetry.
 There are     3 symmetry adapted basis functions of AU  symmetry.
 There are    13 symmetry adapted basis functions of B1U symmetry.
 There are     7 symmetry adapted basis functions of B2U symmetry.
 There are     7 symmetry adapted basis functions of B3U symmetry.
    60 basis functions,    96 primitive gaussians,    70 cartesian basis functions
     9 alpha electrons        7 beta electrons
       nuclear repulsion energy        28.0470232368 Hartrees.
 IExCor=    0 DFT=F Ex=HF Corr=None ExCW=0 ScaHFX=  1.000000
 ScaDFX=  1.000000  1.000000  1.000000  1.000000 ScalE2=  1.000000  1.000000
 IRadAn=      5 IRanWt=     -1 IRanGd=            0 ICorTp=0 IEmpDi=  4
 NAtoms=    2 NActive=    2 NUniq=    1 SFac= 4.00D+00 NAtFMM=   60 NAOKFM=F Big=F
 Integral buffers will be    131072 words long.
 Raffenetti 2 integral format.
 Two-electron integral symmetry is turned on.
 Leave Link  301 at Fri Feb  2 17:13:49 2018, MaxMem=   104857600 cpu:               0.1 elap:               0.2
 (Enter /appl/chem/G16RevA.03/g16/l302.exe)
 NPDir=0 NMtPBC=     1 NCelOv=     1 NCel=       1 NClECP=     1 NCelD=      1
         NCelK=      1 NCelE2=     1 NClLst=     1 CellRange=     0.0.
 One-electron integrals computed using PRISM.
 One-electron integral symmetry used in STVInt
 NBasis=    60 RedAO= T EigKep=  4.53D-03  NBF=    13     3     7     7     3    13     7     7
 NBsUse=    60 1.00D-06 EigRej= -1.00D+00 NBFU=    13     3     7     7     3    13     7     7
 Leave Link  302 at Fri Feb  2 17:13:49 2018, MaxMem=   104857600 cpu:               0.2 elap:               0.3
 (Enter /appl/chem/G16RevA.03/g16/l303.exe)
 DipDrv:  MaxL=1.
 Leave Link  303 at Fri Feb  2 17:13:49 2018, MaxMem=   104857600 cpu:               0.1 elap:               0.2
 (Enter /appl/chem/G16RevA.03/g16/l401.exe)
 ExpMin= 2.56D-01 ExpMax= 8.59D+03 ExpMxC= 1.30D+03 IAcc=3 IRadAn=         5 AccDes= 0.00D+00
 Harris functional with IExCor=  205 and IRadAn=       5 diagonalized for initial guess.
 HarFok:  IExCor=  205 AccDes= 0.00D+00 IRadAn=         5 IDoV= 1 UseB2=F ITyADJ=14
 ICtDFT=  3500011 ScaDFX=  1.000000  1.000000  1.000000  1.000000
 FoFCou: FMM=F IPFlag=           0 FMFlag=      100000 FMFlg1=           0
         NFxFlg=           0 DoJE=T BraDBF=F KetDBF=T FulRan=T
         wScrn=  0.000000 ICntrl=       500 IOpCl=  0 I1Cent=   200000004 NGrid=           0
         NMat0=    1 NMatS0=      1 NMatT0=    0 NMatD0=    1 NMtDS0=    0 NMtDT0=    0
 Petite list used in FoFCou.
 Harris En= -149.592846940769    
 JPrj=0 DoOrth=F DoCkMO=F.
 Initial guess orbital symmetries:
       Occupied  (SGU) (SGG) (SGG) (SGU) (SGG) (PIU) (PIU) (PIG)
                 (PIG)
       Virtual   (SGU) (SGU) (PIU) (PIU) (SGG) (SGG) (PIG) (PIG)
                 (SGU) (DLTG) (DLTG) (PIU) (PIU) (DLTU) (DLTU)
                 (SGG) (PIG) (PIG) (SGU) (PIU) (PIU) (DLTG) (DLTG)
                 (SGG) (PIG) (PIG) (PIU) (PIU) (PHIU) (PHIU) (SGG)
                 (PHIG) (PHIG) (SGU) (DLTU) (DLTU) (DLTG) (DLTG)
                 (SGU) (PIG) (PIG) (DLTU) (DLTU) (PIU) (PIU) (PIG)
                 (PIG) (SGU) (SGG) (SGG) (SGU)
 The electronic state of the initial guess is 3-SGG.
 Leave Link  401 at Fri Feb  2 17:13:50 2018, MaxMem=   104857600 cpu:               0.2 elap:               0.4
 (Enter /appl/chem/G16RevA.03/g16/l502.exe)
 Keep R1 and R2 ints in memory in symmetry-blocked form, NReq=3635458.
 FoFCou: FMM=F IPFlag=           0 FMFlag=           0 FMFlg1=           0
         NFxFlg=           0 DoJE=F BraDBF=F KetDBF=F FulRan=T
         wScrn=  0.000000 ICntrl=       600 IOpCl=  0 I1Cent=           0 NGrid=           0
         NMat0=    1 NMatS0=   1830 NMatT0=    0 NMatD0=    1 NMtDS0=    0 NMtDT0=    0
 Petite list used in FoFCou.
 Restricted open shell SCF:
 Using DIIS extrapolation, IDIIS=  1040.
 NGot=   104857600 LenX=   104404370 LenY=   104399029
 Requested convergence on RMS density matrix=1.00D-08 within 128 cycles.
 Requested convergence on MAX density matrix=1.00D-06.
 Requested convergence on             energy=1.00D-06.
 No special actions if energy rises.

 Cycle   1  Pass 1  IDiag  1:
 E= -149.617657069461    
 DIIS: error= 9.37D-02 at cycle   1 NSaved=   1.
 NSaved= 1 IEnMin= 1 EnMin= -149.617657069461     IErMin= 1 ErrMin= 9.37D-02
 ErrMax= 9.37D-02  0.00D+00 EMaxC= 1.00D-01 BMatC= 1.75D-01 BMatP= 1.75D-01
 IDIUse=3 WtCom= 6.32D-02 WtEn= 9.37D-01
 Coeff-Com:  0.100D+01
 Coeff-En:   0.100D+01
 Coeff:      0.100D+01
 Gap=     0.597 Goal=   None    Shift=    0.000
 GapD=    0.597 DampG=2.000 DampE=0.500 DampFc=1.0000 IDamp=-1.
 RMSDP=1.52D-03 MaxDP=2.31D-02              OVMax= 2.72D-02

 Cycle   2  Pass 1  IDiag  1:
 E= -149.643936066572     Delta-E=       -0.026278997112 Rises=F Damp=F
 DIIS: error= 6.35D-03 at cycle   2 NSaved=   2.
 NSaved= 2 IEnMin= 2 EnMin= -149.643936066572     IErMin= 2 ErrMin= 6.35D-03
 ErrMax= 6.35D-03  0.00D+00 EMaxC= 1.00D-01 BMatC= 1.08D-03 BMatP= 1.75D-01
 IDIUse=3 WtCom= 9.36D-01 WtEn= 6.35D-02
 Coeff-Com: -0.186D-01 0.102D+01
 Coeff-En:   0.000D+00 0.100D+01
 Coeff:     -0.174D-01 0.102D+01
 Gap=     0.583 Goal=   None    Shift=    0.000
 RMSDP=3.09D-04 MaxDP=7.53D-03 DE=-2.63D-02 OVMax= 5.10D-03

 Cycle   3  Pass 1  IDiag  1:
 E= -149.644322400316     Delta-E=       -0.000386333744 Rises=F Damp=F
 DIIS: error= 8.83D-04 at cycle   3 NSaved=   3.
 NSaved= 3 IEnMin= 3 EnMin= -149.644322400316     IErMin= 3 ErrMin= 8.83D-04
 ErrMax= 8.83D-04  0.00D+00 EMaxC= 1.00D-01 BMatC= 3.65D-05 BMatP= 1.08D-03
 IDIUse=3 WtCom= 9.91D-01 WtEn= 8.83D-03
 Coeff-Com: -0.771D-02 0.118D+00 0.890D+00
 Coeff-En:   0.000D+00 0.000D+00 0.100D+01
 Coeff:     -0.764D-02 0.117D+00 0.891D+00
 Gap=     0.582 Goal=   None    Shift=    0.000
 RMSDP=4.06D-05 MaxDP=9.94D-04 DE=-3.86D-04 OVMax= 7.61D-04

 Cycle   4  Pass 1  IDiag  1:
 E= -149.644336451735     Delta-E=       -0.000014051419 Rises=F Damp=F
 DIIS: error= 1.32D-04 at cycle   4 NSaved=   4.
 NSaved= 4 IEnMin= 4 EnMin= -149.644336451735     IErMin= 4 ErrMin= 1.32D-04
 ErrMax= 1.32D-04  0.00D+00 EMaxC= 1.00D-01 BMatC= 6.75D-07 BMatP= 3.65D-05
 IDIUse=3 WtCom= 9.99D-01 WtEn= 1.32D-03
 Coeff-Com:  0.570D-03-0.177D-01-0.111D+00 0.113D+01
 Coeff-En:   0.000D+00 0.000D+00 0.000D+00 0.100D+01
 Coeff:      0.569D-03-0.177D-01-0.111D+00 0.113D+01
 Gap=     0.582 Goal=   None    Shift=    0.000
 RMSDP=1.31D-05 MaxDP=2.36D-04 DE=-1.41D-05 OVMax= 2.01D-04

 Cycle   5  Pass 1  IDiag  1:
 E= -149.644337054211     Delta-E=       -0.000000602476 Rises=F Damp=F
 DIIS: error= 3.99D-05 at cycle   5 NSaved=   5.
 NSaved= 5 IEnMin= 5 EnMin= -149.644337054211     IErMin= 5 ErrMin= 3.99D-05
 ErrMax= 3.99D-05  0.00D+00 EMaxC= 1.00D-01 BMatC= 6.58D-08 BMatP= 6.75D-07
 IDIUse=1 WtCom= 1.00D+00 WtEn= 0.00D+00
 Coeff-Com:  0.344D-03-0.723D-02-0.571D-01 0.249D+00 0.815D+00
 Coeff:      0.344D-03-0.723D-02-0.571D-01 0.249D+00 0.815D+00
 Gap=     0.582 Goal=   None    Shift=    0.000
 RMSDP=3.24D-06 MaxDP=7.34D-05 DE=-6.02D-07 OVMax= 5.45D-05

 Cycle   6  Pass 1  IDiag  1:
 E= -149.644337092231     Delta-E=       -0.000000038020 Rises=F Damp=F
 DIIS: error= 4.93D-06 at cycle   6 NSaved=   6.
 NSaved= 6 IEnMin= 6 EnMin= -149.644337092231     IErMin= 6 ErrMin= 4.93D-06
 ErrMax= 4.93D-06  0.00D+00 EMaxC= 1.00D-01 BMatC= 7.91D-10 BMatP= 6.58D-08
 IDIUse=1 WtCom= 1.00D+00 WtEn= 0.00D+00
 Coeff-Com: -0.599D-04 0.149D-02 0.852D-02-0.614D-01-0.805D-01 0.113D+01
 Coeff:     -0.599D-04 0.149D-02 0.852D-02-0.614D-01-0.805D-01 0.113D+01
 Gap=     0.582 Goal=   None    Shift=    0.000
 RMSDP=4.61D-07 MaxDP=6.67D-06 DE=-3.80D-08 OVMax= 9.47D-06

 Cycle   7  Pass 1  IDiag  1:
 E= -149.644337092970     Delta-E=       -0.000000000739 Rises=F Damp=F
 DIIS: error= 4.58D-07 at cycle   7 NSaved=   7.
 NSaved= 7 IEnMin= 7 EnMin= -149.644337092970     IErMin= 7 ErrMin= 4.58D-07
 ErrMax= 4.58D-07  0.00D+00 EMaxC= 1.00D-01 BMatC= 5.49D-12 BMatP= 7.91D-10
 IDIUse=1 WtCom= 1.00D+00 WtEn= 0.00D+00
 Coeff-Com:  0.441D-05-0.114D-03-0.596D-03 0.593D-02 0.499D-04-0.154D+00
 Coeff-Com:  0.115D+01
 Coeff:      0.441D-05-0.114D-03-0.596D-03 0.593D-02 0.499D-04-0.154D+00
 Coeff:      0.115D+01
 Gap=     0.582 Goal=   None    Shift=    0.000
 RMSDP=4.18D-08 MaxDP=5.60D-07 DE=-7.39D-10 OVMax= 1.17D-06

 Cycle   8  Pass 1  IDiag  1:
 E= -149.644337092977     Delta-E=       -0.000000000006 Rises=F Damp=F
 DIIS: error= 5.38D-08 at cycle   8 NSaved=   8.
 NSaved= 8 IEnMin= 8 EnMin= -149.644337092977     IErMin= 8 ErrMin= 5.38D-08
 ErrMax= 5.38D-08  0.00D+00 EMaxC= 1.00D-01 BMatC= 6.66D-14 BMatP= 5.49D-12
 IDIUse=1 WtCom= 1.00D+00 WtEn= 0.00D+00
 Coeff-Com: -0.739D-06 0.192D-04 0.781D-04-0.102D-02 0.781D-03 0.277D-01
 Coeff-Com: -0.269D+00 0.124D+01
 Coeff:     -0.739D-06 0.192D-04 0.781D-04-0.102D-02 0.781D-03 0.277D-01
 Coeff:     -0.269D+00 0.124D+01
 Gap=     0.582 Goal=   None    Shift=    0.000
 RMSDP=4.29D-09 MaxDP=9.72D-08 DE=-6.28D-12 OVMax= 1.42D-07

 SCF Done:  E(ROHF) =  -149.644337093     A.U. after    8 cycles
            NFock=  8  Conv=0.43D-08     -V/T= 2.0014
 <Sx>= 0.0000 <Sy>= 0.0000 <Sz>= 1.0000 <S**2>= 2.0000 S= 1.0000
 <L.S>= 0.000000000000E+00
 KE= 1.494397093541D+02 PE=-4.111011074813D+02 EE= 8.397003779742D+01
 Annihilation of the first spin contaminant:
 S**2 before annihilation     2.0000,   after     2.0000
 Leave Link  502 at Fri Feb  2 17:13:52 2018, MaxMem=   104857600 cpu:               0.6 elap:               2.2
 (Enter /appl/chem/G16RevA.03/g16/l601.exe)
 Copying SCF densities to generalized density rwf, IOpCl= 0 IROHF=1.

 **********************************************************************

            Population analysis using the SCF density.

 **********************************************************************

 Orbital symmetries:
       Occupied  (SGG) (SGU) (SGG) (SGU) (SGG) (PIU) (PIU) (PIG)
                 (PIG)
       Virtual   (SGU) (SGU) (PIU) (PIU) (SGG) (SGG) (PIG) (PIG)
                 (SGU) (DLTG) (DLTG) (PIU) (PIU) (DLTU) (DLTU)
                 (SGG) (PIG) (PIG) (SGU) (PIU) (PIU) (DLTG) (DLTG)
                 (SGG) (PIG) (PIG) (PHIU) (PHIU) (PIU) (PIU) (SGG)
                 (PHIG) (PHIG) (SGU) (DLTU) (DLTU) (DLTG) (DLTG)
                 (SGU) (PIG) (PIG) (DLTU) (DLTU) (PIU) (PIU) (PIG)
                 (PIG) (SGU) (SGG) (SGG) (SGU)
 The electronic state is 3-SGG.
 Alpha  occ. eigenvalues --  -20.71897 -20.71791  -1.62815  -1.06577  -0.72072
 Alpha  occ. eigenvalues --   -0.66423  -0.66423  -0.13849  -0.13849
 Alpha virt. eigenvalues --    0.44382   0.89288   0.89760   0.89760   0.92338
 Alpha virt. eigenvalues --    0.98741   1.01556   1.01556   1.44895   1.46673
 Alpha virt. eigenvalues --    1.46673   1.55520   1.55520   1.89374   1.89374
 Alpha virt. eigenvalues --    2.49190   2.51117   2.51117   2.65786   4.83781
 Alpha virt. eigenvalues --    4.83781   4.89444   4.89444   5.04745   5.20834
 Alpha virt. eigenvalues --    5.20834   5.22968   5.22968   5.28471   5.28471
 Alpha virt. eigenvalues --    5.44043   5.48711   5.48711   5.64715   6.08350
 Alpha virt. eigenvalues --    6.08350   7.06126   7.06126   7.15910   7.21573
 Alpha virt. eigenvalues --    7.21573   7.23471   7.23471   7.39365   7.39365
 Alpha virt. eigenvalues --    7.71604   7.71604   8.30606   8.47918  51.34310
 Alpha virt. eigenvalues --   51.57467
          Condensed to atoms (all electrons):
               1          2
     1  O    7.862126   0.137874
     2  O    0.137874   7.862126
          Atomic-Atomic Spin Densities.
               1          2
     1  O    1.301963  -0.301963
     2  O   -0.301963   1.301963
 Mulliken charges and spin densities:
               1          2
     1  O   -0.000000   1.000000
     2  O   -0.000000   1.000000
 Sum of Mulliken charges =  -0.00000   2.00000
 Mulliken charges and spin densities with hydrogens summed into heavy atoms:
               1          2
     1  O   -0.000000   1.000000
     2  O   -0.000000   1.000000
 Electronic spatial extent (au):  <R**2>=             43.2063
 Charge=             -0.0000 electrons
 Dipole moment (field-independent basis, Debye):
    X=             -0.0000    Y=             -0.0000    Z=              0.0000  Tot=              0.0000
 Quadrupole moment (field-independent basis, Debye-Ang):
   XX=             -9.9045   YY=             -9.9045   ZZ=            -10.2906
   XY=              0.0000   XZ=              0.0000   YZ=              0.0000
 Traceless Quadrupole moment (field-independent basis, Debye-Ang):
   XX=              0.1287   YY=              0.1287   ZZ=             -0.2574
   XY=              0.0000   XZ=              0.0000   YZ=              0.0000
 Octapole moment (field-independent basis, Debye-Ang**2):
  XXX=             -0.0000  YYY=             -0.0000  ZZZ=             -0.0000  XYY=             -0.0000
  XXY=              0.0000  XXZ=             -0.0000  XZZ=             -0.0000  YZZ=              0.0000
  YYZ=             -0.0000  XYZ=              0.0000
 Hexadecapole moment (field-independent basis, Debye-Ang**3):
 XXXX=             -6.6194 YYYY=             -6.6194 ZZZZ=            -27.7234 XXXY=              0.0000
 XXXZ=              0.0000 YYYX=              0.0000 YYYZ=              0.0000 ZZZX=              0.0000
 ZZZY=              0.0000 XXYY=             -2.2065 XXZZ=             -5.9366 YYZZ=             -5.9366
 XXYZ=              0.0000 YYXZ=              0.0000 ZZXY=             -0.0000
 N-N= 2.804702323678D+01 E-N=-4.111011068146D+02  KE= 1.494397093541D+02
 Symmetry AG   KE= 6.950240466839D+01
 Symmetry B1G  KE= 4.716129790432D-34
 Symmetry B2G  KE= 3.022258400394D+00
 Symmetry B3G  KE= 3.022258400394D+00
 Symmetry AU   KE= 1.594287720025D-33
 Symmetry B1U  KE= 6.506825233547D+01
 Symmetry B2U  KE= 4.412267774727D+00
 Symmetry B3U  KE= 4.412267774727D+00
 Symmetry AG   SP=-1.347688443363D-15
 Symmetry B1G  SP= 6.492413895505D-35
 Symmetry B2G  SP= 1.000000000000D+00
 Symmetry B3G  SP= 1.000000000000D+00
 Symmetry AU   SP= 1.187568854543D-34
 Symmetry B1U  SP=-9.133811733560D-16
 Symmetry B2U  SP=-4.626220055367D-16
 Symmetry B3U  SP=-4.704225391910D-16
                          Isotropic Fermi Contact Couplings
        Atom                 a.u.       MegaHertz       Gauss      10(-4) cm-1
     1  O(17)             -0.00000       0.00000       0.00000       0.00000
     2  O(17)             -0.00000       0.00000       0.00000       0.00000
 --------------------------------------------------------
       Center         ----  Spin Dipole Couplings  ----
                      3XX-RR        3YY-RR        3ZZ-RR
 --------------------------------------------------------
     1   Atom        1.106923      1.106923     -2.213847
     2   Atom        1.106923      1.106923     -2.213847
 --------------------------------------------------------
                        XY            XZ            YZ
 --------------------------------------------------------
     1   Atom        0.000000     -0.000000      0.000000
     2   Atom        0.000000     -0.000000      0.000000
 --------------------------------------------------------


 ---------------------------------------------------------------------------------
              Anisotropic Spin Dipole Couplings in Principal Axis System
 ---------------------------------------------------------------------------------

       Atom             a.u.   MegaHertz   Gauss  10(-4) cm-1        Axes

              Baa    -2.2138   160.192    57.161    53.434  0.0000  0.0000  1.0000
     1 O(17)  Bbb     1.1069   -80.096   -28.580   -26.717  1.0000  0.0000  0.0000
              Bcc     1.1069   -80.096   -28.580   -26.717  0.0000  1.0000  0.0000
 
              Baa    -2.2138   160.192    57.161    53.434  0.0000  0.0000  1.0000
     2 O(17)  Bbb     1.1069   -80.096   -28.580   -26.717  1.0000  0.0000  0.0000
              Bcc     1.1069   -80.096   -28.580   -26.717  0.0000  1.0000  0.0000
 

 ---------------------------------------------------------------------------------

 No NMR shielding tensors so no spin-rotation constants.
 Leave Link  601 at Fri Feb  2 17:13:53 2018, MaxMem=   104857600 cpu:               0.3 elap:               0.6
 (Enter /appl/chem/G16RevA.03/g16/l9999.exe)

 Test job not archived.
 1\1\GINC-C983\SP\ROHF\6-311G(2df,p)\O2(3)\SLEHTOLA\02-Feb-2018\0\\#p r
 ohf/6-311G(2df,p) test gfprint punch=mo gfinput scf=tight\\O2\\0,3\O,0
 ,0.,0.,-0.60376\O,0,0.,0.,0.60376\\Version=ES64L-G16RevA.03\State=3-SG
 G\HF=-149.6443371\RMSD=4.290e-09\Dipole=0.,0.,0.\Quadrupole=0.0956912,
 0.0956912,-0.1913824,0.,0.,0.\PG=D*H [C*(O1.O1)]\\@


 KNIGHT- SIRE, I'VE JUST RETURNED FROM THE FRONT
 KING-   HOW GOES THE BATTLE                    
 KNIGHT- THE SITUATION IS QUITE FLUID           
 KING-   WHAT DOES *THAT* MEAN                  
 KNIGHT- WE'RE UP THE CREEK                     
                THE WIZARD OF ID                
 Job cpu time:       0 days  0 hours  0 minutes  2.1 seconds.
 Elapsed time:       0 days  0 hours  0 minutes  6.1 seconds.
 File lengths (MBytes):  RWF=      6 Int=      0 D2E=      0 Chk=      1 Scr=      1
 Normal termination of Gaussian 16 at Fri Feb  2 17:13:53 2018.
